/*--------------------------------*- C++ -*----------------------------------*\
| =========                 |                                                 |
| \\      /  F ield         | OpenFOAM: The Open Source CFD Toolbox           |
|  \\    /   O peration     | Version:  2.1.1                                 |
|   \\  /    A nd           | Web:      www.OpenFOAM.org                      |
|    \\/     M anipulation  |                                                 |
\*---------------------------------------------------------------------------*/
FoamFile
{
    version     2.0;
    format      ascii;
    class       volScalarField;
    location    "0.2";
    object      p;
}
// * * * * * * * * * * * * * * * * * * * * * * * * * * * * * * * * * * * * * //

dimensions      [0 2 -2 0 0 0 0];

internalField   nonuniform List<scalar> 
200
(
2.37685e-06
-0.00582363
-0.0129584
-0.0184076
-0.0204229
-0.018228
-0.0117633
-0.00147392
0.0118433
0.0271452
0.00577807
-0.000218911
-0.00580211
-0.00953833
-0.0105929
-0.00842556
-0.00296232
0.0054818
0.0163081
0.028708
0.013329
0.00503066
-0.000995513
-0.00442103
-0.00526907
-0.00325888
0.00160815
0.00903402
0.0185071
0.0293468
0.0201302
0.00869096
0.00122414
-0.00266783
-0.00371953
-0.00188136
0.00273623
0.00979052
0.0187855
0.0290935
0.0244908
0.00976698
0.000587269
-0.00398687
-0.00530018
-0.00350376
0.00117954
0.00834063
0.0174675
0.0279484
0.0251664
0.00714403
-0.00380432
-0.00905695
-0.0105098
-0.00849599
-0.0033514
0.00443632
0.0143199
0.0256795
0.0210839
-0.000266786
-0.0129355
-0.0187079
-0.0200264
-0.0174088
-0.0113117
-0.00231131
0.00899859
0.0219781
0.0111372
-0.0136196
-0.0278736
-0.0338508
-0.0345982
-0.0308505
-0.0232043
-0.0123348
0.00111507
0.0164877
-0.0059671
-0.0342637
-0.0498653
-0.0555424
-0.0550824
-0.0495053
-0.0395827
-0.0261007
-0.00974457
0.00882915
-0.0318503
-0.0638683
-0.0804084
-0.0849978
-0.0824096
-0.0740666
-0.0609678
-0.0440217
-0.0239367
-0.00132797
-0.0686533
-0.10459
-0.121332
-0.123577
-0.117502
-0.105113
-0.087703
-0.0663088
-0.0416201
-0.0141434
-0.119382
-0.159339
-0.174899
-0.172742
-0.161132
-0.142913
-0.119742
-0.0927591
-0.062559
-0.0294316
-0.188602
-0.23222
-0.24392
-0.23393
-0.213678
-0.187138
-0.156355
-0.122483
-0.0858786
-0.0464513
-0.283945
-0.329281
-0.331811
-0.308262
-0.274692
-0.236423
-0.195747
-0.153593
-0.109821
-0.0637183
-0.419289
-0.459647
-0.44233
-0.395775
-0.342113
-0.287724
-0.2346
-0.182914
-0.13159
-0.0789508
-0.620504
-0.636721
-0.578659
-0.494178
-0.411227
-0.335645
-0.267767
-0.205964
-0.147518
-0.0893403
-0.9359
-0.878496
-0.741726
-0.597936
-0.474382
-0.372649
-0.288857
-0.217751
-0.153935
-0.0924122
-1.4764
-1.20662
-0.920491
-0.691379
-0.517297
-0.387536
-0.290052
-0.213328
-0.148106
-0.0871565
-2.53963
-1.63054
-1.04443
-0.710953
-0.495746
-0.352088
-0.254524
-0.183575
-0.126151
-0.0735356
-4.36665
-2.04462
-0.973536
-0.563178
-0.357846
-0.240146
-0.170117
-0.123777
-0.0874645
-0.0534633
)
;

boundaryField
{
    movingWall
    {
        type            zeroGradient;
    }
    fixedWalls
    {
        type            zeroGradient;
    }
    frontAndBack
    {
        type            empty;
    }
    procBoundary0to1
    {
        type            processor;
        value           nonuniform List<scalar> 
20
(
0.0432579
0.0417631
0.040778
0.0400044
0.0390982
0.0378284
0.0359261
0.0330713
0.0289219
0.0231682
0.0156288
0.00639514
-0.00399592
-0.0144255
-0.0232107
-0.0284344
-0.028739
-0.0246119
-0.0193079
-0.0166824
)
;
    }
}


// ************************************************************************* //
