/*--------------------------------*- C++ -*----------------------------------*\
| =========                 |                                                 |
| \\      /  F ield         | OpenFOAM: The Open Source CFD Toolbox           |
|  \\    /   O peration     | Version:  2.1.1                                 |
|   \\  /    A nd           | Web:      www.OpenFOAM.org                      |
|    \\/     M anipulation  |                                                 |
\*---------------------------------------------------------------------------*/
FoamFile
{
    version     2.0;
    format      ascii;
    class       surfaceScalarField;
    location    "0.2";
    object      phi;
}
// * * * * * * * * * * * * * * * * * * * * * * * * * * * * * * * * * * * * * //

dimensions      [0 3 -1 0 0 0 0];

internalField   nonuniform List<scalar> 
370
(
1.42325e-08
-1.42519e-08
-2.22093e-08
3.64419e-08
-1.14249e-07
9.204e-08
-2.45442e-07
1.31193e-07
-3.96008e-07
1.50566e-07
-5.47236e-07
1.51228e-07
-6.83022e-07
1.35787e-07
-7.9046e-07
1.07438e-07
-8.59975e-07
6.95153e-08
2.54199e-08
-3.4205e-08
1.99529e-08
-1.80329e-07
1.82564e-07
-4.33879e-07
3.4559e-07
-7.64238e-07
4.61552e-07
-1.13192e-06
5.18248e-07
-1.49686e-06
5.16165e-07
-1.82286e-06
4.61794e-07
-2.07999e-06
3.64568e-07
-2.24569e-06
2.3521e-07
8.5166e-08
-9.21991e-08
1.12152e-07
-3.56891e-07
4.47255e-07
-7.64337e-07
7.53035e-07
-1.26812e-06
9.65339e-07
-1.81419e-06
1.06431e-06
-2.34839e-06
1.05037e-06
-2.82165e-06
9.35055e-07
-3.19306e-06
7.35979e-07
-3.43167e-06
4.7382e-07
1.71055e-07
-1.45162e-07
2.57314e-07
-5.25296e-07
8.27388e-07
-1.0813e-06
1.30904e-06
-1.74699e-06
1.63103e-06
-2.45361e-06
1.77093e-06
-3.13547e-06
1.73222e-06
-3.73422e-06
1.53381e-06
-4.20172e-06
1.20348e-06
-4.50166e-06
7.73762e-07
2.80048e-07
-1.93546e-07
4.50861e-07
-6.84791e-07
1.31863e-06
-1.38521e-06
2.00946e-06
-2.20661e-06
2.45242e-06
-3.0646e-06
2.62893e-06
-3.8827e-06
2.55032e-06
-4.59525e-06
2.24636e-06
-5.14919e-06
1.75742e-06
-5.50498e-06
1.12955e-06
4.12106e-07
-2.3987e-07
6.90732e-07
-8.40121e-07
1.91888e-06
-1.68285e-06
2.85219e-06
-2.65638e-06
3.42596e-06
-3.65993e-06
3.63247e-06
-4.60664e-06
3.49704e-06
-5.42505e-06
3.06476e-06
-6.05913e-06
2.3915e-06
-6.46784e-06
1.53826e-06
5.68784e-07
-2.86678e-07
9.7741e-07
-9.96871e-07
2.62907e-06
-1.98167e-06
3.83699e-06
-3.10432e-06
4.5486e-06
-4.24711e-06
4.77527e-06
-5.31378e-06
4.5637e-06
-6.22891e-06
3.97989e-06
-6.93584e-06
3.09844e-06
-7.39409e-06
1.9965e-06
7.51902e-07
-3.36276e-07
1.31369e-06
-1.1602e-06
3.45299e-06
-2.28768e-06
4.96448e-06
-3.55449e-06
5.81541e-06
-4.82594e-06
6.04672e-06
-5.99822e-06
5.73599e-06
-6.99506e-06
4.97673e-06
-7.76244e-06
3.86583e-06
-8.26334e-06
2.4974e-06
9.62012e-07
-3.90922e-07
1.70461e-06
-1.33477e-06
4.39684e-06
-2.60476e-06
6.23447e-06
-4.00561e-06
7.21626e-06
-5.38637e-06
7.42748e-06
-6.6392e-06
6.98882e-06
-7.69179e-06
6.02932e-06
-8.49775e-06
4.67179e-06
-9.02765e-06
3.0273e-06
1.1965e-06
-4.53443e-07
2.15805e-06
-1.52565e-06
5.46905e-06
-2.93481e-06
7.64363e-06
-4.45001e-06
8.73145e-06
-5.90617e-06
8.88364e-06
-7.19762e-06
8.28027e-06
-8.26343e-06
7.09513e-06
-9.07181e-06
5.48016e-06
-9.60659e-06
3.56208e-06
1.4472e-06
-5.2835e-07
2.6864e-06
-1.7397e-06
6.6804e-06
-3.27805e-06
9.18198e-06
-4.87174e-06
1.03251e-05
-6.34716e-06
1.03591e-05
-7.61099e-06
9.5441e-06
-8.62454e-06
8.10867e-06
-9.37988e-06
6.2355e-06
-9.88117e-06
4.06338e-06
1.69773e-06
-6.23705e-07
3.31011e-06
-1.9875e-06
8.0442e-06
-3.63213e-06
1.08266e-05
-5.24226e-06
1.19353e-05
-6.64801e-06
1.17648e-05
-7.785e-06
1.06811e-05
-8.65161e-06
8.97528e-06
-9.27494e-06
6.85883e-06
-9.68719e-06
4.47562e-06
1.92099e-06
-7.54135e-07
4.06424e-06
-2.28453e-06
9.5746e-06
-3.98735e-06
1.25294e-05
-5.50961e-06
1.34575e-05
-6.71029e-06
1.29655e-05
-7.57938e-06
1.15502e-05
-8.171e-06
9.56689e-06
-8.55865e-06
7.24649e-06
-8.80879e-06
4.72576e-06
2.0783e-06
-9.45276e-07
5.00952e-06
-2.64871e-06
1.1278e-05
-4.31141e-06
1.41921e-05
-5.57392e-06
1.472e-05
-6.37151e-06
1.37631e-05
-6.78428e-06
1.1963e-05
-6.94165e-06
9.72425e-06
-6.97098e-06
7.27582e-06
-6.97407e-06
4.72885e-06
2.12201e-06
-1.23739e-06
6.2469e-06
-3.08352e-06
1.31242e-05
-4.50814e-06
1.56167e-05
-5.23514e-06
1.5447e-05
-5.35609e-06
1.3884e-05
-5.08291e-06
1.16898e-05
-4.63213e-06
9.27348e-06
-4.18061e-06
6.8243e-06
-3.85577e-06
4.40401e-06
2.00468e-06
-1.67387e-06
7.92077e-06
-3.51357e-06
1.49639e-05
-4.3157e-06
1.64189e-05
-4.08948e-06
1.52208e-05
-3.19387e-06
1.29884e-05
-1.99977e-06
1.04957e-05
-7.96346e-07
8.07006e-06
2.18004e-07
5.80995e-06
9.16821e-07
3.70519e-06
1.69734e-06
-2.23073e-06
1.01515e-05
-3.59045e-06
1.63236e-05
-3.07809e-06
1.59065e-05
-1.34437e-06
1.34871e-05
8.96342e-07
1.07477e-05
3.15408e-06
8.23793e-06
5.13706e-06
6.08708e-06
6.68751e-06
4.2595e-06
7.72456e-06
2.66814e-06
1.21667e-06
-2.57383e-06
1.27253e-05
-2.18354e-06
1.59333e-05
7.17873e-07
1.30051e-05
4.46923e-06
9.73575e-06
8.13279e-06
7.08415e-06
1.13009e-05
5.06982e-06
1.38283e-05
3.55971e-06
1.56872e-05
2.40062e-06
1.68906e-05
1.46466e-06
6.53541e-07
-7.85011e-07
1.35103e-05
4.08077e-06
1.10675e-05
1.02975e-05
6.78841e-06
1.57935e-05
4.23976e-06
2.01577e-05
2.71986e-06
2.34577e-05
1.76989e-06
2.58603e-05
1.15708e-06
2.75209e-05
7.39994e-07
2.85533e-05
4.32249e-07
1.81265e-07
1.35103e-05
2.45779e-05
3.13663e-05
3.5606e-05
3.83259e-05
4.00958e-05
4.12529e-05
4.19929e-05
4.24251e-05
)
;

boundaryField
{
    movingWall
    {
        type            calculated;
        value           uniform 0;
    }
    fixedWalls
    {
        type            calculated;
        value           uniform 0;
    }
    frontAndBack
    {
        type            empty;
        value           nonuniform 0();
    }
    procBoundary0to1
    {
        type            processor;
        value           nonuniform List<scalar> 
20
(
-8.85397e-07
-2.30544e-06
-3.51756e-06
-4.61066e-06
-5.63704e-06
-6.62452e-06
-7.5772e-06
-8.47345e-06
-9.26214e-06
-9.85729e-06
-1.01317e-05
-9.91045e-06
-8.9661e-06
-7.01778e-06
-3.73844e-06
1.22417e-06
8.20523e-06
1.74538e-05
2.90256e-05
4.26064e-05
)
;
    }
}


// ************************************************************************* //
