/*--------------------------------*- C++ -*----------------------------------*\
| =========                 |                                                 |
| \\      /  F ield         | OpenFOAM: The Open Source CFD Toolbox           |
|  \\    /   O peration     | Version:  2.1.1                                 |
|   \\  /    A nd           | Web:      www.OpenFOAM.org                      |
|    \\/     M anipulation  |                                                 |
\*---------------------------------------------------------------------------*/
FoamFile
{
    version     2.0;
    format      ascii;
    class       volVectorField;
    location    "0.2";
    object      U;
}
// * * * * * * * * * * * * * * * * * * * * * * * * * * * * * * * * * * * * * //

dimensions      [0 1 -1 0 0 0 0];

internalField   nonuniform List<vector> 
200
(
(0.000253376 -0.00025024 0)
(0.000141169 0.000111511 0)
(-0.00117681 0.000564522 0)
(-0.00348041 0.000884786 0)
(-0.00637605 0.00104545 0)
(-0.00946724 0.00106147 0)
(-0.0123999 0.000957576 0)
(-0.0148811 0.000760174 0)
(-0.0166851 0.000494402 0)
(-0.0176552 0.000184432 0)
(-7.74275e-05 -0.000169085 0)
(-0.00161113 0.00164463 0)
(-0.00569146 0.00361651 0)
(-0.0117159 0.0050336 0)
(-0.0188874 0.00574178 0)
(-0.026394 0.00575872 0)
(-0.0334606 0.0051703 0)
(-0.0394166 0.00409133 0)
(-0.0437327 0.00264673 0)
(-0.0460375 0.000966503 0)
(-0.000528429 0.00109151 0)
(-0.00371029 0.00573497 0)
(-0.0105859 0.0102219 0)
(-0.0199861 0.0134042 0)
(-0.0307564 0.0149424 0)
(-0.0418109 0.014835 0)
(-0.0521059 0.0132522 0)
(-0.060728 0.0104534 0)
(-0.0669518 0.0067401 0)
(-0.0702665 0.00243814 0)
(-0.000927895 0.00347896 0)
(-0.00568972 0.0122174 0)
(-0.0152973 0.0199164 0)
(-0.0279089 0.0251911 0)
(-0.0419738 0.0275897 0)
(-0.0561638 0.0271304 0)
(-0.0692335 0.0241026 0)
(-0.0801044 0.0189489 0)
(-0.0879252 0.0121924 0)
(-0.0920969 0.00440405 0)
(-0.00127849 0.0068758 0)
(-0.00753378 0.0209478 0)
(-0.0197992 0.0325014 0)
(-0.0355253 0.0400924 0)
(-0.0527296 0.0432788 0)
(-0.0698407 0.0421817 0)
(-0.0854419 0.0372679 0)
(-0.0983361 0.0292056 0)
(-0.107593 0.0187726 0)
(-0.112563 0.00681237 0)
(-0.00160703 0.0112123 0)
(-0.00931554 0.0318655 0)
(-0.0242032 0.0479386 0)
(-0.0429923 0.0580564 0)
(-0.0632422 0.0619208 0)
(-0.0831339 0.0598656 0)
(-0.101101 0.0526148 0)
(-0.115866 0.0411156 0)
(-0.12646 0.0264308 0)
(-0.13221 0.00969114 0)
(-0.00193957 0.0164723 0)
(-0.0111188 0.0449618 0)
(-0.0286445 0.0662157 0)
(-0.0504698 0.0790388 0)
(-0.0736706 0.083425 0)
(-0.0961853 0.080054 0)
(-0.11633 0.070007 0)
(-0.13279 0.0545717 0)
(-0.144604 0.0351237 0)
(-0.151115 0.0130825 0)
(-0.00229962 0.0226888 0)
(-0.013023 0.0602854 0)
(-0.0332458 0.0873418 0)
(-0.0580711 0.102971 0)
(-0.0840624 0.107639 0)
(-0.108938 0.102537 0)
(-0.130949 0.0892233 0)
(-0.148813 0.0693951 0)
(-0.161643 0.0447621 0)
(-0.168846 0.0170172 0)
(-0.00271136 0.0299398 0)
(-0.0151066 0.0779386 0)
(-0.0381113 0.111331 0)
(-0.0658425 0.129721 0)
(-0.0943184 0.134288 0)
(-0.121088 0.126946 0)
(-0.144431 0.109878 0)
(-0.163198 0.0852638 0)
(-0.176671 0.0551562 0)
(-0.184392 0.0214839 0)
(-0.00320756 0.0383517 0)
(-0.0174657 0.0980699 0)
(-0.0433398 0.138162 0)
(-0.0737544 0.159015 0)
(-0.104157 0.162869 0)
(-0.132028 0.152643 0)
(-0.15582 0.131316 0)
(-0.174673 0.101621 0)
(-0.188161 0.0659458 0)
(-0.196062 0.0263861 0)
(-0.00384408 0.0481207 0)
(-0.0202467 0.120874 0)
(-0.0490479 0.167725 0)
(-0.0816885 0.190335 0)
(-0.113056 0.192525 0)
(-0.14075 0.178585 0)
(-0.163625 0.152486 0)
(-0.181313 0.117573 0)
(-0.19385 0.0765227 0)
(-0.201366 0.0314905 0)
(-0.00472569 0.0595637 0)
(-0.0236962 0.146599 0)
(-0.0553866 0.19973 0)
(-0.0893824 0.222761 0)
(-0.12013 0.221861 0)
(-0.145686 0.203159 0)
(-0.165643 0.171815 0)
(-0.180384 0.131791 0)
(-0.190595 0.0859578 0)
(-0.196878 0.0363722 0)
(-0.00605206 0.0732219 0)
(-0.0282282 0.175547 0)
(-0.0625142 0.233548 0)
(-0.0962662 0.25472 0)
(-0.12387 0.248703 0)
(-0.144414 0.224 0)
(-0.158689 0.187084 0)
(-0.168128 0.142444 0)
(-0.174223 0.0929572 0)
(-0.178141 0.0403746 0)
(-0.00819264 0.0900413 0)
(-0.0344855 0.208007 0)
(-0.0704189 0.267864 0)
(-0.101034 0.283584 0)
(-0.12159 0.269787 0)
(-0.133127 0.237818 0)
(-0.138186 0.195384 0)
(-0.139489 0.147217 0)
(-0.139395 0.0958984 0)
(-0.139621 0.0426148 0)
(-0.0117681 0.111632 0)
(-0.0432626 0.243952 0)
(-0.0783041 0.300019 0)
(-0.100639 0.305075 0)
(-0.108368 0.280441 0)
(-0.105752 0.240364 0)
(-0.0975539 0.193264 0)
(-0.0877987 0.143535 0)
(-0.0795307 0.0930263 0)
(-0.0748118 0.0420902 0)
(-0.0175498 0.140657 0)
(-0.054767 0.282139 0)
(-0.0827923 0.324708 0)
(-0.0880909 0.312461 0)
(-0.0751236 0.274442 0)
(-0.0526105 0.226756 0)
(-0.027482 0.177276 0)
(-0.00454173 0.129125 0)
(0.0130694 0.0829049 0)
(0.0234163 0.0379425 0)
(-0.02545 0.18171 0)
(-0.0657763 0.317768 0)
(-0.0733377 0.331356 0)
(-0.0480853 0.295393 0)
(-0.0055906 0.244203 0)
(0.0412021 0.192371 0)
(0.0846329 0.145038 0)
(0.120512 0.102964 0)
(0.146676 0.0651319 0)
(0.162029 0.0298878 0)
(-0.0296491 0.239176 0)
(-0.0608422 0.335766 0)
(-0.0219452 0.3005 0)
(0.0505364 0.240123 0)
(0.127564 0.182944 0)
(0.196995 0.135384 0)
(0.254321 0.0973938 0)
(0.298231 0.0668464 0)
(0.328803 0.0413515 0)
(0.346456 0.0187765 0)
(0.00808321 0.281862 0)
(0.019783 0.294972 0)
(0.139065 0.210972 0)
(0.264457 0.143475 0)
(0.364363 0.097184 0)
(0.440357 0.0657753 0)
(0.496733 0.0442353 0)
(0.536861 0.0288839 0)
(0.563431 0.0171972 0)
(0.578301 0.00748468 0)
(0.299604 0.146091 0)
(0.396272 0.127503 0)
(0.55742 0.0760894 0)
(0.674487 0.043723 0)
(0.743887 0.0255717 0)
(0.787151 0.0152418 0)
(0.815482 0.0092119 0)
(0.83395 0.00550891 0)
(0.845379 0.00302685 0)
(0.851371 0.00114981 0)
)
;

boundaryField
{
    movingWall
    {
        type            fixedValue;
        value           uniform (1 0 0);
    }
    fixedWalls
    {
        type            fixedValue;
        value           uniform (0 0 0);
    }
    frontAndBack
    {
        type            empty;
    }
    procBoundary0to1
    {
        type            processor;
        value           nonuniform List<vector> 
20
(
(-0.0176991 -0.000145143 0)
(-0.0461199 -0.00081277 0)
(-0.0703845 -0.00210567 0)
(-0.0922816 -0.0038066 0)
(-0.112872 -0.00577836 0)
(-0.132723 -0.0079135 0)
(-0.151923 -0.0100828 0)
(-0.170041 -0.0121291 0)
(-0.186043 -0.0138696 0)
(-0.198181 -0.0151072 0)
(-0.203862 -0.0156532 0)
(-0.199516 -0.015365 0)
(-0.180507 -0.0141932 0)
(-0.141136 -0.0122281 0)
(-0.0748294 -0.00972434 0)
(0.0253747 -0.0070695 0)
(0.165923 -0.00466822 0)
(0.351365 -0.00279204 0)
(0.582376 -0.00149378 0)
(0.852666 -0.000499698 0)
)
;
    }
}


// ************************************************************************* //
