/*--------------------------------*- C++ -*----------------------------------*\
| =========                 |                                                 |
| \\      /  F ield         | OpenFOAM: The Open Source CFD Toolbox           |
|  \\    /   O peration     | Version:  2.1.1                                 |
|   \\  /    A nd           | Web:      www.OpenFOAM.org                      |
|    \\/     M anipulation  |                                                 |
\*---------------------------------------------------------------------------*/
FoamFile
{
    version     2.0;
    format      ascii;
    class       volScalarField;
    location    "0.5";
    object      p;
}
// * * * * * * * * * * * * * * * * * * * * * * * * * * * * * * * * * * * * * //

dimensions      [0 2 -2 0 0 0 0];

internalField   nonuniform List<scalar> 
200
(
0.0432595
0.0588304
0.0725838
0.0833136
0.090058
0.0922722
0.0900311
0.0842492
0.076886
0.0710725
0.041764
0.0543927
0.0655915
0.0744152
0.0801256
0.0823211
0.0810826
0.0770602
0.0712795
0.0653233
0.0407783
0.0518758
0.0617735
0.0696417
0.0748124
0.0768835
0.075847
0.0720913
0.0658109
0.0575409
0.0400041
0.0506599
0.0602378
0.0679213
0.0730086
0.0750069
0.0737712
0.0694615
0.0616084
0.050108
0.0390968
0.0500757
0.0600537
0.0681704
0.0736318
0.0758031
0.0743744
0.0692952
0.059531
0.0445426
0.0378257
0.049909
0.0610529
0.0703084
0.07674
0.0795223
0.0781443
0.072339
0.0605447
0.0418955
0.0359218
0.0499501
0.063117
0.0743506
0.0825273
0.0865749
0.0857261
0.0794525
0.0656258
0.0430772
0.0330651
0.0499395
0.0660883
0.0802953
0.0912062
0.0974355
0.0978757
0.0916415
0.0759018
0.0491221
0.0289138
0.0495996
0.0698026
0.08816
0.103053
0.112707
0.115556
0.110197
0.0928398
0.061417
0.0231581
0.0486673
0.0741009
0.0979779
0.118402
0.133131
0.139994
0.136824
0.118446
0.0819394
0.0156171
0.0469597
0.0788614
0.109799
0.13763
0.159591
0.172733
0.173784
0.155526
0.113576
0.00638256
0.0444801
0.0840612
0.123709
0.161142
0.193092
0.215674
0.224083
0.208056
0.160638
-0.00400868
0.0415454
0.0898487
0.139836
0.189325
0.234695
0.27108
0.29167
0.281749
0.229782
-0.0144377
0.0388699
0.0965615
0.158283
0.22238
0.285294
0.341403
0.381581
0.38492
0.33184
-0.0232215
0.0374815
0.104561
0.178845
0.259868
0.344977
0.428623
0.499706
0.529681
0.485398
-0.0284435
0.0383541
0.113816
0.200479
0.299982
0.412032
0.533036
0.651782
0.732778
0.722402
-0.0287465
0.0417006
0.123274
0.220726
0.338933
0.482162
0.652004
0.841349
1.01528
1.09751
-0.0246179
0.0454606
0.128948
0.233079
0.36711
0.542685
0.7713
1.05932
1.40329
1.73015
-0.0193132
0.0427875
0.119223
0.21879
0.354819
0.547991
0.8264
1.23659
1.91168
2.9242
-0.0166877
0.0276602
0.0846168
0.161738
0.272419
0.442107
0.718226
1.22572
2.41104
4.84854
)
;

boundaryField
{
    movingWall
    {
        type            zeroGradient;
    }
    fixedWalls
    {
        type            zeroGradient;
    }
    frontAndBack
    {
        type            empty;
    }
    procBoundary1to0
    {
        type            processor;
        value           nonuniform List<scalar> 
20
(
0.0271441
0.0287074
0.0293463
0.0290928
0.0279471
0.025677
0.0219741
0.0164818
0.00882115
-0.00133797
-0.0141551
-0.0294442
-0.0464642
-0.0637305
-0.0789615
-0.0893491
-0.0924191
-0.0871616
-0.0735393
-0.0534658
)
;
    }
}


// ************************************************************************* //
