/*--------------------------------*- C++ -*----------------------------------*\
| =========                 |                                                 |
| \\      /  F ield         | OpenFOAM: The Open Source CFD Toolbox           |
|  \\    /   O peration     | Version:  2.1.1                                 |
|   \\  /    A nd           | Web:      www.OpenFOAM.org                      |
|    \\/     M anipulation  |                                                 |
\*---------------------------------------------------------------------------*/
FoamFile
{
    version     2.0;
    format      ascii;
    class       volScalarField;
    location    "0.5";
    object      p;
}
// * * * * * * * * * * * * * * * * * * * * * * * * * * * * * * * * * * * * * //

dimensions      [0 2 -2 0 0 0 0];

internalField   nonuniform List<scalar> 
400
(
6.10502e-06
-0.00581951
-0.0129569
-0.0184092
-0.0204268
-0.0182333
-0.0117689
-0.00147879
0.01184
0.0271441
0.0432595
0.0588304
0.0725838
0.0833136
0.090058
0.0922722
0.0900311
0.0842492
0.076886
0.0710725
0.00578634
-0.000212552
-0.00579835
-0.00953704
-0.0105935
-0.00842747
-0.0029648
0.00547937
0.0163063
0.0287074
0.041764
0.0543927
0.0655915
0.0744152
0.0801256
0.0823211
0.0810826
0.0770602
0.0712795
0.0653233
0.0133408
0.00503924
-0.000989835
-0.00441771
-0.00526762
-0.00325875
0.00160749
0.00903302
0.0185061
0.0293463
0.0407783
0.0518758
0.0617735
0.0696417
0.0748124
0.0768835
0.075847
0.0720913
0.0658109
0.0575409
0.0201451
0.00870145
0.00123128
-0.00266317
-0.00371684
-0.00188014
0.00273645
0.0097901
0.0187847
0.0290928
0.0400041
0.0506599
0.0602378
0.0679213
0.0730086
0.0750069
0.0737712
0.0694615
0.0616084
0.050108
0.0245076
0.0097786
0.000595214
-0.00398151
-0.00529689
-0.0035021
0.00117998
0.00834017
0.0174664
0.0279471
0.0390968
0.0500757
0.0600537
0.0681704
0.0736318
0.0758031
0.0743744
0.0692952
0.059531
0.0445426
0.0251835
0.00715555
-0.00379653
-0.00905171
-0.0105067
-0.00849459
-0.00335142
0.00443519
0.0143179
0.025677
0.0378257
0.049909
0.0610529
0.0703084
0.07674
0.0795223
0.0781443
0.072339
0.0605447
0.0418955
0.021099
-0.000256827
-0.012929
-0.0187037
-0.0200242
-0.0174083
-0.0113128
-0.00231372
0.00899519
0.0219741
0.0359218
0.0499501
0.063117
0.0743506
0.0825273
0.0865749
0.0857261
0.0794525
0.0656258
0.0430772
0.0111483
-0.0136126
-0.0278694
-0.0338485
-0.0345978
-0.0308517
-0.0232071
-0.012339
0.00110982
0.0164818
0.0330651
0.0499395
0.0660883
0.0802953
0.0912062
0.0974355
0.0978757
0.0916415
0.0759018
0.0491221
-0.00596158
-0.0342608
-0.0498643
-0.0555428
-0.0550843
-0.0495087
-0.0395875
-0.0261069
-0.00975189
0.00882115
0.0289138
0.0495996
0.0698026
0.08816
0.103053
0.112707
0.115556
0.110197
0.0928398
0.061417
-0.0318514
-0.0638703
-0.0804111
-0.0850013
-0.0824141
-0.0740723
-0.0609748
-0.0440301
-0.023946
-0.00133797
0.0231581
0.0486673
0.0741009
0.0979779
0.118402
0.133131
0.139994
0.136824
0.118446
0.0819394
-0.0686614
-0.104597
-0.121338
-0.123584
-0.117509
-0.10512
-0.087712
-0.0663189
-0.0416312
-0.0141551
0.0156171
0.0469597
0.0788614
0.109799
0.13763
0.159591
0.172733
0.173784
0.155526
0.113576
-0.119396
-0.159351
-0.174909
-0.172751
-0.161142
-0.142923
-0.119753
-0.0927704
-0.0625712
-0.0294442
0.00638256
0.0444801
0.0840612
0.123709
0.161142
0.193092
0.215674
0.224083
0.208056
0.160638
-0.188622
-0.232235
-0.243932
-0.233941
-0.213688
-0.187148
-0.156366
-0.122494
-0.085891
-0.0464642
-0.00400868
0.0415454
0.0898487
0.139836
0.189325
0.234695
0.27108
0.29167
0.281749
0.229782
-0.283968
-0.329298
-0.331825
-0.308273
-0.274702
-0.236433
-0.195757
-0.153603
-0.109832
-0.0637305
-0.0144377
0.0388699
0.0965615
0.158283
0.22238
0.285294
0.341403
0.381581
0.38492
0.33184
-0.419311
-0.459664
-0.442343
-0.395785
-0.342122
-0.287732
-0.234608
-0.182923
-0.1316
-0.0789615
-0.0232215
0.0374815
0.104561
0.178845
0.259868
0.344977
0.428623
0.499706
0.529681
0.485398
-0.620524
-0.636736
-0.578669
-0.494185
-0.411233
-0.33565
-0.267772
-0.205971
-0.147526
-0.0893491
-0.0284435
0.0383541
0.113816
0.200479
0.299982
0.412032
0.533036
0.651782
0.732778
0.722402
-0.935916
-0.878507
-0.741734
-0.597941
-0.474385
-0.372651
-0.28886
-0.217756
-0.153941
-0.0924191
-0.0287465
0.0417006
0.123274
0.220726
0.338933
0.482162
0.652004
0.841349
1.01528
1.09751
-1.47641
-1.20662
-0.920495
-0.69138
-0.517297
-0.387535
-0.290052
-0.21333
-0.14811
-0.0871616
-0.0246179
0.0454606
0.128948
0.233079
0.36711
0.542685
0.7713
1.05932
1.40329
1.73015
-2.53964
-1.63054
-1.04443
-0.710951
-0.495742
-0.352085
-0.254522
-0.183575
-0.126153
-0.0735393
-0.0193132
0.0427875
0.119223
0.21879
0.354819
0.547991
0.8264
1.23659
1.91168
2.9242
-4.36666
-2.04463
-0.973534
-0.563173
-0.357839
-0.240139
-0.170111
-0.123774
-0.0874639
-0.0534658
-0.0166877
0.0276602
0.0846168
0.161738
0.272419
0.442107
0.718226
1.22572
2.41104
4.84854
)
;

boundaryField
{
    movingWall
    {
        type            zeroGradient;
    }
    fixedWalls
    {
        type            zeroGradient;
    }
    frontAndBack
    {
        type            empty;
    }
}


// ************************************************************************* //
