/*--------------------------------*- C++ -*----------------------------------*\
| =========                 |                                                 |
| \\      /  F ield         | OpenFOAM: The Open Source CFD Toolbox           |
|  \\    /   O peration     | Version:  2.1.1                                 |
|   \\  /    A nd           | Web:      www.OpenFOAM.org                      |
|    \\/     M anipulation  |                                                 |
\*---------------------------------------------------------------------------*/
FoamFile
{
    version     2.0;
    format      ascii;
    class       surfaceScalarField;
    location    "0.5";
    object      phi;
}
// * * * * * * * * * * * * * * * * * * * * * * * * * * * * * * * * * * * * * //

dimensions      [0 3 -1 0 0 0 0];

internalField   nonuniform List<scalar> 
760
(
1.4225e-08
-1.42762e-08
-2.22152e-08
3.64404e-08
-1.14277e-07
9.20622e-08
-2.45507e-07
1.3123e-07
-3.96118e-07
1.50611e-07
-5.47392e-07
1.51273e-07
-6.8322e-07
1.35827e-07
-7.90691e-07
1.07469e-07
-8.60228e-07
6.9535e-08
-8.85657e-07
2.54264e-08
-8.64338e-07
-2.13151e-08
-7.97414e-07
-6.69242e-08
-6.90111e-07
-1.07303e-07
-5.51995e-07
-1.38116e-07
-3.96959e-07
-1.55035e-07
-2.42759e-07
-1.542e-07
-1.09737e-07
-1.33021e-07
-1.84164e-08
-9.13206e-08
1.56905e-08
-3.4107e-08
1.56904e-08
-3.42212e-08
1.99451e-08
-1.80389e-07
1.82608e-07
-4.34019e-07
3.45692e-07
-7.64484e-07
4.61696e-07
-1.13228e-06
5.18412e-07
-1.49734e-06
5.16328e-07
-1.82345e-06
4.61939e-07
-2.08066e-06
3.6468e-07
-2.2464e-06
2.3528e-07
-2.30617e-06
8.51878e-08
-2.25403e-06
-7.34541e-08
-2.09317e-06
-2.27785e-07
-1.83636e-06
-3.64106e-07
-1.50612e-06
-4.68356e-07
-1.13414e-06
-5.27017e-07
-7.59561e-07
-5.28782e-07
-4.25422e-07
-4.67161e-07
-1.727e-07
-3.44042e-07
-3.08033e-08
-1.76004e-07
-1.5113e-08
-9.22353e-08
1.12181e-07
-3.57021e-07
4.47394e-07
-7.64608e-07
7.53279e-07
-1.26857e-06
9.65654e-07
-1.81481e-06
1.06466e-06
-2.34919e-06
1.05071e-06
-2.8226e-06
9.35355e-07
-3.19413e-06
7.3621e-07
-3.43281e-06
4.73962e-07
-3.51872e-06
1.71098e-07
-3.44377e-06
-1.48405e-07
-3.21244e-06
-4.5912e-07
-2.84226e-06
-7.34282e-07
-2.36393e-06
-9.46687e-07
-1.82041e-06
-1.07054e-06
-1.26455e-06
-1.08464e-06
-7.5456e-07
-9.77152e-07
-3.46987e-07
-7.51614e-07
-8.734e-08
-4.35651e-07
-1.02453e-07
-1.45219e-07
2.57401e-07
-5.25492e-07
8.27666e-07
-1.08169e-06
1.30948e-06
-1.7476e-06
1.63157e-06
-2.45446e-06
1.77151e-06
-3.13654e-06
1.73279e-06
-3.73549e-06
1.5343e-06
-4.20313e-06
1.20385e-06
-4.50315e-06
7.73991e-07
-4.61217e-06
2.80113e-07
-4.52049e-06
-2.40087e-07
-4.23294e-06
-7.46665e-07
-3.76955e-06
-1.19768e-06
-3.16578e-06
-1.55045e-06
-2.47199e-06
-1.76433e-06
-1.75115e-06
-1.80548e-06
-1.07456e-06
-1.65374e-06
-5.15161e-07
-1.31101e-06
-1.39321e-07
-8.11491e-07
-2.41775e-07
-1.93619e-07
4.51021e-07
-6.85033e-07
1.31908e-06
-1.38569e-06
2.01013e-06
-2.20734e-06
2.45322e-06
-3.0656e-06
2.62977e-06
-3.88395e-06
2.55113e-06
-4.5967e-06
2.24706e-06
-5.15081e-06
1.75795e-06
-5.50668e-06
1.12987e-06
-5.63877e-06
4.12194e-07
-5.53599e-06
-3.42868e-07
-5.20258e-06
-1.08007e-06
-4.65906e-06
-1.7412e-06
-3.9431e-06
-2.26641e-06
-3.10982e-06
-2.59762e-06
-2.23058e-06
-2.68472e-06
-1.38969e-06
-2.49463e-06
-6.78523e-07
-2.02217e-06
-1.87774e-07
-1.30224e-06
-4.29549e-07
-2.3995e-07
6.90971e-07
-8.40381e-07
1.91951e-06
-1.68335e-06
2.8531e-06
-2.65715e-06
3.42702e-06
-3.66097e-06
3.63359e-06
-4.60793e-06
3.4981e-06
-5.42655e-06
3.06567e-06
-6.06079e-06
2.39219e-06
-6.46958e-06
1.53867e-06
-6.62629e-06
5.68895e-07
-6.51854e-06
-4.50609e-07
-6.14901e-06
-1.44961e-06
-5.53672e-06
-2.35348e-06
-4.71907e-06
-3.08405e-06
-3.75358e-06
-3.56312e-06
-2.71856e-06
-3.71974e-06
-1.71159e-06
-3.5016e-06
-8.44687e-07
-2.88908e-06
-2.36186e-07
-1.91074e-06
-6.65736e-07
-2.86754e-07
9.77725e-07
-9.97115e-07
2.62987e-06
-1.98214e-06
3.83812e-06
-3.10503e-06
4.54992e-06
-4.24808e-06
4.77663e-06
-5.31497e-06
4.56499e-06
-6.23029e-06
3.98099e-06
-6.93737e-06
3.09927e-06
-7.39569e-06
1.997e-06
-7.57883e-06
7.52032e-07
-7.47336e-06
-5.56076e-07
-7.0793e-06
-1.84367e-06
-6.41205e-06
-3.02073e-06
-5.50572e-06
-3.99038e-06
-4.41717e-06
-4.65167e-06
-3.22945e-06
-4.90746e-06
-2.053e-06
-4.67805e-06
-1.02256e-06
-3.91952e-06
-2.88288e-07
-2.64501e-06
-9.54024e-07
-3.36338e-07
1.31406e-06
-1.16039e-06
3.45393e-06
-2.28806e-06
4.96579e-06
-3.55507e-06
5.81692e-06
-4.82672e-06
6.04828e-06
-5.99919e-06
5.73746e-06
-6.99617e-06
4.97798e-06
-7.76367e-06
3.86677e-06
-8.26464e-06
2.49797e-06
-8.47477e-06
9.6216e-07
-8.38012e-06
-6.50729e-07
-7.97704e-06
-2.24674e-06
-7.27471e-06
-3.72307e-06
-6.30007e-06
-4.96502e-06
-5.10477e-06
-5.84697e-06
-3.7726e-06
-6.23963e-06
-2.42493e-06
-6.02572e-06
-1.22077e-06
-5.12368e-06
-3.47713e-07
-3.51807e-06
-1.30174e-06
-3.90962e-07
1.70503e-06
-1.3349e-06
4.39787e-06
-2.60501e-06
6.2359e-06
-4.00599e-06
7.21791e-06
-5.38687e-06
7.42917e-06
-6.63982e-06
6.99041e-06
-7.69252e-06
6.03067e-06
-8.49856e-06
4.67281e-06
-9.0285e-06
3.02792e-06
-9.26301e-06
1.19666e-06
-9.18874e-06
-7.24998e-07
-8.79757e-06
-2.63791e-06
-8.08945e-06
-4.43119e-06
-7.07909e-06
-5.97538e-06
-5.80638e-06
-7.11968e-06
-4.34909e-06
-7.69692e-06
-2.83484e-06
-7.53997e-06
-1.44711e-06
-6.51141e-06
-4.18103e-07
-4.54707e-06
-1.71984e-06
-4.53455e-07
2.15848e-06
-1.52569e-06
5.4701e-06
-2.93489e-06
7.6451e-06
-4.45013e-06
8.73315e-06
-5.90635e-06
8.88538e-06
-7.19784e-06
8.2819e-06
-8.26369e-06
7.09652e-06
-9.0721e-06
5.48122e-06
-9.6069e-06
3.56272e-06
-9.85762e-06
1.44738e-06
-9.81346e-06
-7.69159e-07
-9.46142e-06
-2.98995e-06
-8.78915e-06
-5.10346e-06
-7.79304e-06
-6.97149e-06
-6.49224e-06
-8.42048e-06
-4.94799e-06
-9.24117e-06
-3.28513e-06
-9.20283e-06
-1.70869e-06
-8.08785e-06
-5.03589e-07
-5.75217e-06
-2.22343e-06
-5.28333e-07
2.68681e-06
-1.73965e-06
6.68142e-06
-3.27795e-06
9.1834e-06
-4.8716e-06
1.03268e-05
-6.34697e-06
1.03608e-05
-7.61078e-06
9.5457e-06
-8.6243e-06
8.11005e-06
-9.37962e-06
6.23654e-06
-9.88091e-06
4.06401e-06
-1.01314e-05
1.69791e-06
-1.01257e-05
-7.7489e-07
-9.84628e-06
-3.26938e-06
-9.26595e-06
-5.68379e-06
-8.3563e-06
-7.88113e-06
-7.10467e-06
-9.67211e-06
-5.54069e-06
-1.08052e-05
-3.7707e-06
-1.09728e-05
-2.01216e-06
-9.84639e-06
-6.09688e-07
-7.15464e-06
-2.83312e-06
-6.23659e-07
3.31047e-06
-1.98736e-06
8.04512e-06
-3.63187e-06
1.08279e-05
-5.24186e-06
1.19368e-05
-6.64748e-06
1.17664e-05
-7.78437e-06
1.06826e-05
-8.65089e-06
8.97657e-06
-9.27416e-06
6.85981e-06
-9.68638e-06
4.47623e-06
-9.90964e-06
1.92118e-06
-9.94709e-06
-7.37448e-07
-9.77846e-06
-3.438e-06
-9.36079e-06
-6.10147e-06
-8.63554e-06
-8.60638e-06
-7.54632e-06
-1.07613e-05
-6.07154e-06
-1.22799e-05
-4.27424e-06
-1.27701e-05
-2.36364e-06
-1.1757e-05
-7.44774e-07
-8.77351e-06
-3.57789e-06
-7.54066e-07
4.06454e-06
-2.28431e-06
9.57537e-06
-3.98695e-06
1.25305e-05
-5.509e-06
1.34588e-05
-6.70948e-06
1.29669e-05
-7.57841e-06
1.15515e-05
-8.16988e-06
9.56804e-06
-8.55743e-06
7.24737e-06
-8.80751e-06
4.72631e-06
-8.96482e-06
2.07848e-06
-9.04417e-06
-6.58099e-07
-9.02558e-06
-3.45659e-06
-8.85246e-06
-6.27459e-06
-8.43471e-06
-9.02412e-06
-7.66282e-06
-1.15332e-05
-6.44194e-06
-1.35008e-05
-4.75622e-06
-1.44558e-05
-2.76673e-06
-1.37465e-05
-9.2243e-07
-1.06178e-05
-4.50032e-06
-9.45194e-07
5.00973e-06
-2.64845e-06
1.12786e-05
-4.31091e-06
1.4193e-05
-5.57318e-06
1.47211e-05
-6.37053e-06
1.37642e-05
-6.78308e-06
1.19641e-05
-6.94026e-06
9.72522e-06
-6.96945e-06
7.27656e-06
-6.97247e-06
4.72932e-06
-7.01617e-06
2.12218e-06
-7.1283e-06
-5.45965e-07
-7.29349e-06
-3.2914e-06
-7.44841e-06
-6.11967e-06
-7.4777e-06
-8.99483e-06
-7.2178e-06
-1.17931e-05
-6.48266e-06
-1.4236e-05
-5.13338e-06
-1.58051e-05
-3.21495e-06
-1.56649e-05
-1.16438e-06
-1.26684e-05
-5.6647e-06
-1.2373e-06
6.24703e-06
-3.08325e-06
1.31246e-05
-4.50762e-06
1.56174e-05
-5.23435e-06
1.54478e-05
-5.35504e-06
1.38849e-05
-5.08161e-06
1.16906e-05
-4.63063e-06
9.27423e-06
-4.17895e-06
6.82489e-06
-3.85401e-06
4.40439e-06
-3.73666e-06
2.00482e-06
-3.86479e-06
-4.1783e-07
-4.23234e-06
-2.92385e-06
-4.78182e-06
-5.57019e-06
-5.39085e-06
-8.3858e-06
-5.85833e-06
-1.13256e-05
-5.90646e-06
-1.41878e-05
-5.23275e-06
-1.64788e-05
-3.66624e-06
-1.72314e-05
-1.50007e-06
-1.48345e-05
-7.16477e-06
-1.67379e-06
7.92083e-06
-3.51333e-06
1.49641e-05
-4.31523e-06
1.64193e-05
-4.08875e-06
1.52214e-05
-3.19288e-06
1.2989e-05
-1.99853e-06
1.04963e-05
-7.94889e-07
8.0706e-06
2.19627e-07
5.81037e-06
9.18548e-07
3.70547e-06
1.22593e-06
1.69744e-06
1.10237e-06
-2.94271e-07
5.41343e-07
-2.36282e-06
-4.22682e-07
-4.60616e-06
-1.69236e-06
-7.11612e-06
-3.07225e-06
-9.94574e-06
-4.23071e-06
-1.30294e-05
-4.69558e-06
-1.6014e-05
-3.96715e-06
-1.79599e-05
-1.94491e-06
-1.68568e-05
-9.10968e-06
-2.23068e-06
1.01515e-05
-3.59027e-06
1.63237e-05
-3.07772e-06
1.59067e-05
-1.34378e-06
1.34874e-05
8.97167e-07
1.07481e-05
3.15514e-06
8.23831e-06
5.13832e-06
6.08742e-06
6.68892e-06
4.25977e-06
7.72607e-06
2.66832e-06
8.20678e-06
1.21673e-06
8.10413e-06
-1.91617e-07
7.39927e-06
-1.65795e-06
6.08706e-06
-3.29396e-06
4.19936e-06
-5.22841e-06
1.85429e-06
-7.60068e-06
-6.61616e-07
-1.05135e-05
-2.79211e-06
-1.38835e-05
-3.66206e-06
-1.70899e-05
-2.41153e-06
-1.81073e-05
-1.15212e-05
-2.57381e-06
1.27253e-05
-2.18344e-06
1.59333e-05
7.18104e-07
1.30052e-05
4.46963e-06
9.7359e-06
8.13337e-06
7.08433e-06
1.13017e-05
5.07e-06
1.38292e-05
3.55988e-06
1.56882e-05
2.40075e-06
1.68918e-05
1.46475e-06
1.7455e-05
6.53572e-07
1.73765e-05
-1.13152e-07
1.66306e-05
-9.12101e-07
1.51673e-05
-1.83063e-06
1.29236e-05
-2.98473e-06
9.86185e-06
-4.53889e-06
6.06204e-06
-6.71365e-06
1.91238e-06
-9.73382e-06
-1.5596e-06
-1.36179e-05
-2.45833e-06
-1.72086e-05
-1.39795e-05
-7.85014e-07
1.35103e-05
4.0808e-06
1.10675e-05
1.02976e-05
6.78843e-06
1.57937e-05
4.2398e-06
2.01581e-05
2.71991e-06
2.34581e-05
1.76995e-06
2.58609e-05
1.15713e-06
2.75216e-05
7.40031e-07
2.85541e-05
4.32272e-07
2.90264e-05
1.81271e-07
2.89622e-05
-4.90276e-08
2.83388e-05
-2.88678e-07
2.70819e-05
-5.73719e-07
2.50551e-05
-9.5795e-07
2.20518e-05
-1.53552e-06
1.78155e-05
-2.47742e-06
1.21724e-05
-4.09068e-06
5.47773e-06
-6.92324e-06
-1.29167e-07
-1.16017e-05
-1.41087e-05
1.35103e-05
2.45778e-05
3.13663e-05
3.56061e-05
3.8326e-05
4.00959e-05
4.12531e-05
4.19931e-05
4.24254e-05
4.26066e-05
4.25576e-05
4.22689e-05
4.16952e-05
4.07373e-05
3.92017e-05
3.67243e-05
3.26336e-05
2.57104e-05
1.41087e-05
)
;

boundaryField
{
    movingWall
    {
        type            calculated;
        value           uniform 0;
    }
    fixedWalls
    {
        type            calculated;
        value           uniform 0;
    }
    frontAndBack
    {
        type            empty;
        value           nonuniform 0();
    }
}


// ************************************************************************* //
