/*--------------------------------*- C++ -*----------------------------------*\
| =========                 |                                                 |
| \\      /  F ield         | OpenFOAM: The Open Source CFD Toolbox           |
|  \\    /   O peration     | Version:  2.1.1                                 |
|   \\  /    A nd           | Web:      www.OpenFOAM.org                      |
|    \\/     M anipulation  |                                                 |
\*---------------------------------------------------------------------------*/
FoamFile
{
    version     2.0;
    format      ascii;
    class       volVectorField;
    location    "0.5";
    object      U;
}
// * * * * * * * * * * * * * * * * * * * * * * * * * * * * * * * * * * * * * //

dimensions      [0 1 -1 0 0 0 0];

internalField   nonuniform List<vector> 
400
(
(0.000253325 -0.000250537 0)
(0.000141085 0.000111376 0)
(-0.0011771 0.000564602 0)
(-0.0034813 0.000885005 0)
(-0.00637779 0.00104574 0)
(-0.00946992 0.00106176 0)
(-0.0124035 0.00095784 0)
(-0.0148855 0.00076038 0)
(-0.01669 0.000494534 0)
(-0.0176604 0.00018448 0)
(-0.0177043 -0.000145184 0)
(-0.0168056 -0.00046827 0)
(-0.0150306 -0.000755381 0)
(-0.0125257 -0.00097428 0)
(-0.00952685 -0.00109123 0)
(-0.00635527 -0.00107405 0)
(-0.00340078 -0.000898157 0)
(-0.00108646 -0.00055641 0)
(0.000196449 -9.03649e-05 0)
(0.000267877 0.000262401 0)
(-7.75199e-05 -0.000169521 0)
(-0.00161174 0.00164481 0)
(-0.00569331 0.00361745 0)
(-0.0117196 0.00503508 0)
(-0.0188935 0.00574353 0)
(-0.0264025 0.00576049 0)
(-0.0334713 0.00517187 0)
(-0.0394292 0.00409256 0)
(-0.0437466 0.0026475 0)
(-0.0460521 0.000966756 0)
(-0.0461344 -0.000813054 0)
(-0.043964 -0.00254698 0)
(-0.0397035 -0.00407875 0)
(-0.0337048 -0.00524537 0)
(-0.0265151 -0.0058869 0)
(-0.0188557 -0.0058652 0)
(-0.0115673 -0.00509505 0)
(-0.0055136 -0.00358962 0)
(-0.00149316 -0.00155921 0)
(-4.25756e-05 0.000227483 0)
(-0.000528662 0.00109161 0)
(-0.00371169 0.00573657 0)
(-0.0105897 0.0102251 0)
(-0.0199932 0.0134085 0)
(-0.0307671 0.0149472 0)
(-0.0418253 0.0148397 0)
(-0.0521236 0.0132564 0)
(-0.0607485 0.0104567 0)
(-0.0669742 0.00674213 0)
(-0.0702898 0.00243876 0)
(-0.0704077 -0.00210649 0)
(-0.067289 -0.00652569 0)
(-0.0611565 -0.0104298 0)
(-0.0524921 -0.0134219 0)
(-0.0420399 -0.0151245 0)
(-0.030776 -0.0152266 0)
(-0.0198303 -0.0135568 0)
(-0.0103642 -0.0101795 0)
(-0.00354873 -0.00555137 0)
(-0.00047687 -0.000948867 0)
(-0.000928294 0.00348003 0)
(-0.00569191 0.0122214 0)
(-0.0153029 0.0199229 0)
(-0.0279189 0.0251994 0)
(-0.0419884 0.0275987 0)
(-0.0561831 0.0271392 0)
(-0.0692571 0.0241104 0)
(-0.0801313 0.0189549 0)
(-0.0879545 0.0121961 0)
(-0.0921273 0.00440513 0)
(-0.0923119 -0.00380819 0)
(-0.0884563 -0.0117973 0)
(-0.0808104 -0.0188834 0)
(-0.0699276 -0.0243779 0)
(-0.056673 -0.0276294 0)
(-0.0421975 -0.0281035 0)
(-0.0278583 -0.0254992 0)
(-0.0150946 -0.0198928 0)
(-0.00550537 -0.0119283 0)
(-0.00086165 -0.00322503 0)
(-0.00127901 0.00687822 0)
(-0.00753654 0.0209549 0)
(-0.0198061 0.0325124 0)
(-0.0355372 0.0401057 0)
(-0.0527469 0.0432929 0)
(-0.0698632 0.0421953 0)
(-0.0854691 0.0372797 0)
(-0.098367 0.0292147 0)
(-0.107627 0.0187782 0)
(-0.112598 0.00681392 0)
(-0.112906 -0.00578088 0)
(-0.108481 -0.0180559 0)
(-0.0995683 -0.0290133 0)
(-0.0867445 -0.0376351 0)
(-0.07094 -0.0429476 0)
(-0.0534334 -0.0441314 0)
(-0.0357866 -0.040681 0)
(-0.0197362 -0.0325942 0)
(-0.00737099 -0.0205916 0)
(-0.00120374 -0.00649847 0)
(-0.00160761 0.0112163 0)
(-0.00931853 0.0318763 0)
(-0.0242106 0.0479544 0)
(-0.0430049 0.0580751 0)
(-0.0632604 0.0619404 0)
(-0.0831573 0.0598843 0)
(-0.10113 0.052631 0)
(-0.115898 0.0411278 0)
(-0.126495 0.0264382 0)
(-0.132246 0.00969314 0)
(-0.132758 -0.00791703 0)
(-0.127929 -0.0251337 0)
(-0.117972 -0.0406273 0)
(-0.103439 -0.0530222 0)
(-0.0852727 -0.0609693 0)
(-0.0648383 -0.0632831 0)
(-0.0438873 -0.0591447 0)
(-0.0244787 -0.0483465 0)
(-0.00925468 -0.0315589 0)
(-0.00153781 -0.010729 0)
(-0.00194012 0.0164779 0)
(-0.0111216 0.0449762 0)
(-0.0286514 0.0662363 0)
(-0.0504816 0.0790628 0)
(-0.0736875 0.0834499 0)
(-0.096207 0.0800775 0)
(-0.116356 0.0700272 0)
(-0.132819 0.054587 0)
(-0.144636 0.0351329 0)
(-0.151148 0.0130849 0)
(-0.151956 -0.0100873 0)
(-0.14692 -0.0328344 0)
(-0.136185 -0.0535022 0)
(-0.120227 -0.0703399 0)
(-0.0999354 -0.0815686 0)
(-0.0767035 -0.085536 0)
(-0.0524415 -0.0809667 0)
(-0.0295456 -0.0672794 0)
(-0.0112839 -0.0449411 0)
(-0.00190012 -0.0159521 0)
(-0.00230008 0.0226958 0)
(-0.0130253 0.060303 0)
(-0.0332514 0.0873666 0)
(-0.0580807 0.103 0)
(-0.0840761 0.107669 0)
(-0.108955 0.102565 0)
(-0.13097 0.089247 0)
(-0.148837 0.0694129 0)
(-0.161669 0.0447728 0)
(-0.168872 0.01702 0)
(-0.170067 -0.0121344 0)
(-0.165074 -0.040895 0)
(-0.153932 -0.0673169 0)
(-0.136972 -0.0892764 0)
(-0.114944 -0.104515 0)
(-0.0891771 -0.1108 0)
(-0.0616715 -0.106216 0)
(-0.0351488 -0.0895819 0)
(-0.013586 -0.0609511 0)
(-0.00232636 -0.0222782 0)
(-0.00271166 0.0299478 0)
(-0.0151081 0.0779585 0)
(-0.0381149 0.111359 0)
(-0.0658486 0.129753 0)
(-0.0943272 0.134321 0)
(-0.1211 0.126977 0)
(-0.144444 0.109905 0)
(-0.163214 0.0852836 0)
(-0.176688 0.0551681 0)
(-0.184409 0.021487 0)
(-0.18606 -0.0138754 0)
(-0.181422 -0.0489582 0)
(-0.170395 -0.0815958 0)
(-0.153081 -0.109327 0)
(-0.129971 -0.129384 0)
(-0.102186 -0.138832 0)
(-0.0716897 -0.13489 0)
(-0.0414671 -0.115472 0)
(-0.0162881 -0.0798969 0)
(-0.0028547 -0.0298902 0)
(-0.00320765 0.0383602 0)
(-0.0174662 0.098091 0)
(-0.0433409 0.138191 0)
(-0.0737564 0.159048 0)
(-0.10416 0.162904 0)
(-0.132032 0.152676 0)
(-0.155825 0.131344 0)
(-0.174678 0.101642 0)
(-0.188167 0.0659584 0)
(-0.196069 0.0263895 0)
(-0.198187 -0.0151132 0)
(-0.194283 -0.0565467 0)
(-0.184081 -0.0956441 0)
(-0.167366 -0.129692 0)
(-0.144215 -0.155427 0)
(-0.115339 -0.1691 0)
(-0.0824458 -0.166805 0)
(-0.0486361 -0.145126 0)
(-0.0195287 -0.102161 0)
(-0.00353356 -0.0390478 0)
(-0.00384394 0.0481292 0)
(-0.0202461 0.120895 0)
(-0.0490463 0.167754 0)
(-0.081686 0.190369 0)
(-0.113052 0.19256 0)
(-0.140746 0.178617 0)
(-0.163621 0.152514 0)
(-0.181308 0.117594 0)
(-0.193845 0.0765355 0)
(-0.201361 0.0314941 0)
(-0.203857 -0.0156589 0)
(-0.201108 -0.0630514 0)
(-0.192648 -0.108493 0)
(-0.177856 -0.149173 0)
(-0.156223 -0.181418 0)
(-0.127779 -0.200609 0)
(-0.093644 -0.201427 0)
(-0.0567329 -0.178576 0)
(-0.0234798 -0.128174 0)
(-0.00443553 -0.0501049 0)
(-0.00472534 0.0595716 0)
(-0.0236945 0.146618 0)
(-0.0553826 0.199758 0)
(-0.0893757 0.222793 0)
(-0.120121 0.221894 0)
(-0.145675 0.20319 0)
(-0.165629 0.171842 0)
(-0.180369 0.131812 0)
(-0.190579 0.0859703 0)
(-0.196862 0.036376 0)
(-0.1995 -0.0153702 0)
(-0.198334 -0.0677435 0)
(-0.192716 -0.118868 0)
(-0.181573 -0.16608 0)
(-0.163644 -0.20549 0)
(-0.137966 -0.231663 0)
(-0.104595 -0.237627 0)
(-0.0657333 -0.215527 0)
(-0.0283776 -0.158369 0)
(-0.00568207 -0.0635526 0)
(-0.00605154 0.0732286 0)
(-0.0282256 0.175564 0)
(-0.0625082 0.233572 0)
(-0.0962561 0.254748 0)
(-0.123855 0.248733 0)
(-0.144396 0.224028 0)
(-0.158668 0.187109 0)
(-0.168105 0.142463 0)
(-0.174198 0.0929689 0)
(-0.178115 0.0403783 0)
(-0.180482 -0.0141976 0)
(-0.181263 -0.0698212 0)
(-0.179693 -0.125212 0)
(-0.174269 -0.178182 0)
(-0.162894 -0.224975 0)
(-0.143315 -0.25959 0)
(-0.113937 -0.273331 0)
(-0.0753928 -0.255068 0)
(-0.0345562 -0.193091 0)
(-0.00748627 -0.0801046 0)
(-0.00819202 0.0900464 0)
(-0.0344825 0.208021 0)
(-0.0704116 0.267885 0)
(-0.101022 0.283608 0)
(-0.121573 0.269813 0)
(-0.133105 0.237842 0)
(-0.13816 0.195405 0)
(-0.139459 0.147233 0)
(-0.139364 0.0959088 0)
(-0.139589 0.0426184 0)
(-0.141103 -0.0122315 0)
(-0.144052 -0.0685066 0)
(-0.147666 -0.125795 0)
(-0.150167 -0.18277 0)
(-0.148718 -0.236326 0)
(-0.139642 -0.280448 0)
(-0.119094 -0.305027 0)
(-0.0849355 -0.29516 0)
(-0.0424403 -0.232378 0)
(-0.010216 -0.100837 0)
(-0.0117674 0.111635 0)
(-0.0432594 0.243962 0)
(-0.0782965 0.300035 0)
(-0.100626 0.305093 0)
(-0.108349 0.280461 0)
(-0.105728 0.240383 0)
(-0.0975256 0.193282 0)
(-0.0877667 0.143549 0)
(-0.0794962 0.0930349 0)
(-0.074776 0.0420934 0)
(-0.0747938 -0.00972681 0)
(-0.0798863 -0.0632101 0)
(-0.089459 -0.11899 0)
(-0.101785 -0.176958 0)
(-0.113683 -0.235286 0)
(-0.120303 -0.288883 0)
(-0.115262 -0.327197 0)
(-0.0922658 -0.331795 0)
(-0.0523154 -0.275404 0)
(-0.0144303 -0.127347 0)
(-0.0175493 0.140659 0)
(-0.0547643 0.282146 0)
(-0.0827855 0.324719 0)
(-0.088079 0.312474 0)
(-0.0751063 0.274457 0)
(-0.052588 0.226771 0)
(-0.0274548 0.177288 0)
(-0.00451067 0.129135 0)
(0.0131032 0.0829114 0)
(0.0234515 0.037945 0)
(0.02541 -0.00707115 0)
(0.0185117 -0.0537571 0)
(0.00298359 -0.103752 0)
(-0.0199932 -0.15832 0)
(-0.0476829 -0.217503 0)
(-0.0749826 -0.278361 0)
(-0.0935453 -0.331792 0)
(-0.092063 -0.357683 0)
(-0.0632802 -0.319294 0)
(-0.0206336 -0.161974 0)
(-0.0254497 0.181711 0)
(-0.0657744 0.317771 0)
(-0.0733324 0.331363 0)
(-0.0480759 0.295401 0)
(-0.00557647 0.244212 0)
(0.041221 0.19238 0)
(0.0846561 0.145047 0)
(0.120539 0.102971 0)
(0.146705 0.0651363 0)
(0.16206 0.0298896 0)
(0.165954 -0.00466925 0)
(0.157939 -0.0406268 0)
(0.137735 -0.0802459 0)
(0.105443 -0.125918 0)
(0.0622646 -0.179727 0)
(0.0118075 -0.242021 0)
(-0.0378287 -0.307878 0)
(-0.0716787 -0.360143 0)
(-0.0700553 -0.356608 0)
(-0.0279122 -0.208375 0)
(-0.029649 0.239176 0)
(-0.0608412 0.335768 0)
(-0.0219421 0.300503 0)
(0.0505426 0.240127 0)
(0.127573 0.182949 0)
(0.197009 0.135389 0)
(0.254338 0.0973986 0)
(0.298252 0.0668502 0)
(0.328826 0.041354 0)
(0.34648 0.0187774 0)
(0.351389 -0.00279263 0)
(0.343304 -0.0252637 0)
(0.32147 -0.050787 0)
(0.284644 -0.0820478 0)
(0.231574 -0.122446 0)
(0.162182 -0.175669 0)
(0.0799013 -0.243431 0)
(-0.00318947 -0.319136 0)
(-0.0546694 -0.368612 0)
(-0.0284594 -0.267618 0)
(0.00808309 0.281861 0)
(0.019783 0.294972 0)
(0.139066 0.210973 0)
(0.26446 0.143477 0)
(0.364368 0.097186 0)
(0.440364 0.0657774 0)
(0.496743 0.0442372 0)
(0.536873 0.0288853 0)
(0.563446 0.0171981 0)
(0.578316 0.00748496 0)
(0.582391 -0.00149408 0)
(0.575695 -0.0108445 0)
(0.557308 -0.0218464 0)
(0.525135 -0.0363346 0)
(0.475778 -0.0572595 0)
(0.404538 -0.0893841 0)
(0.305176 -0.139741 0)
(0.173417 -0.216386 0)
(0.0411721 -0.311655 0)
(0.0184302 -0.299995 0)
(0.299604 0.146091 0)
(0.396272 0.127503 0)
(0.55742 0.0760895 0)
(0.674487 0.0437233 0)
(0.743888 0.0255721 0)
(0.787153 0.0152422 0)
(0.815485 0.00921222 0)
(0.833954 0.00550915 0)
(0.845384 0.00302698 0)
(0.851377 0.00114983 0)
(0.852672 -0.000499782 0)
(0.849381 -0.00221491 0)
(0.840999 -0.00433832 0)
(0.82614 -0.00742396 0)
(0.802078 -0.0125322 0)
(0.763621 -0.0217728 0)
(0.699108 -0.0392829 0)
(0.583952 -0.0726601 0)
(0.415827 -0.127868 0)
(0.308819 -0.149468 0)
)
;

boundaryField
{
    movingWall
    {
        type            fixedValue;
        value           uniform (1 0 0);
    }
    fixedWalls
    {
        type            fixedValue;
        value           uniform (0 0 0);
    }
    frontAndBack
    {
        type            empty;
    }
}


// ************************************************************************* //
