/*--------------------------------*- C++ -*----------------------------------*\
| =========                 |                                                 |
| \\      /  F ield         | OpenFOAM: The Open Source CFD Toolbox           |
|  \\    /   O peration     | Version:  2.1.1                                 |
|   \\  /    A nd           | Web:      www.OpenFOAM.org                      |
|    \\/     M anipulation  |                                                 |
\*---------------------------------------------------------------------------*/
FoamFile
{
    version     2.0;
    format      ascii;
    class       volScalarField;
    location    "0.1";
    object      p;
}
// * * * * * * * * * * * * * * * * * * * * * * * * * * * * * * * * * * * * * //

dimensions      [0 2 -2 0 0 0 0];

internalField   nonuniform List<scalar> 
200
(
-7.287e-08
-0.00573526
-0.0127466
-0.0180811
-0.0200174
-0.0177923
-0.0113492
-0.00112872
0.0120817
0.0272518
0.00568127
-0.000222742
-0.00570891
-0.00936027
-0.0103532
-0.00815591
-0.00269709
0.0057108
0.0164749
0.0287948
0.0131066
0.0049306
-0.000997764
-0.00434769
-0.00513912
-0.00309536
0.00178076
0.00919326
0.0186341
0.0294277
0.0197923
0.00850941
0.00115156
-0.00266388
-0.00365718
-0.0017794
0.0028587
0.00991644
0.0189001
0.0291845
0.0240791
0.00953414
0.000471491
-0.00402433
-0.00527631
-0.00343392
0.00128039
0.00845938
0.017592
0.028067
0.0247413
0.00690304
-0.00392793
-0.00910294
-0.0104926
-0.00842735
-0.0032426
0.00457519
0.0144783
0.0258454
0.0207134
-0.000467107
-0.0130277
-0.0187272
-0.0199829
-0.0173102
-0.0111656
-0.00212537
0.00921483
0.0222117
0.0108866
-0.0137324
-0.0278973
-0.0338108
-0.0344991
-0.0306949
-0.0229959
-0.012079
0.00140936
0.0168065
-0.006044
-0.0342507
-0.0497908
-0.0554179
-0.0549057
-0.0492735
-0.0392949
-0.0257598
-0.00935908
0.00924427
-0.0317193
-0.0637065
-0.0802185
-0.0847755
-0.0821453
-0.0737509
-0.0605951
-0.043592
-0.0234575
-0.000815159
-0.0683062
-0.104276
-0.121027
-0.12326
-0.117156
-0.104721
-0.0872549
-0.0658006
-0.0410581
-0.013544
-0.11884
-0.158892
-0.174497
-0.17235
-0.160727
-0.142471
-0.119245
-0.0921984
-0.0619395
-0.0287699
-0.187918
-0.231682
-0.24346
-0.233504
-0.213255
-0.186687
-0.15585
-0.12191
-0.0852393
-0.0457633
-0.283195
-0.328713
-0.33135
-0.307856
-0.274306
-0.236018
-0.195286
-0.153055
-0.109207
-0.0630465
-0.418566
-0.459121
-0.441932
-0.395453
-0.341827
-0.287421
-0.234235
-0.182461
-0.131047
-0.078337
-0.619902
-0.63631
-0.578387
-0.493999
-0.411092
-0.335492
-0.267541
-0.205634
-0.147082
-0.0888172
-0.935492
-0.878254
-0.741625
-0.597938
-0.474429
-0.37267
-0.288792
-0.217566
-0.153624
-0.0919958
-1.47622
-1.20656
-0.920571
-0.691563
-0.517522
-0.387727
-0.290145
-0.213286
-0.14792
-0.0868446
-2.53963
-1.63063
-1.04466
-0.711299
-0.49614
-0.35245
-0.254782
-0.183683
-0.12609
-0.0733157
-4.36674
-2.04481
-0.97389
-0.563685
-0.358433
-0.240718
-0.170581
-0.124066
-0.0875406
-0.0533237
)
;

boundaryField
{
    movingWall
    {
        type            zeroGradient;
    }
    fixedWalls
    {
        type            zeroGradient;
    }
    frontAndBack
    {
        type            empty;
    }
    procBoundary0to1
    {
        type            processor;
        value           nonuniform List<scalar> 
20
(
0.0432227
0.0417619
0.0408056
0.0400643
0.0392018
0.0379908
0.0361637
0.0333984
0.0293478
0.0236934
0.0162422
0.00707318
-0.00328773
-0.0137276
-0.0225616
-0.0278628
-0.0282569
-0.0242108
-0.0189602
-0.0163525
)
;
    }
}


// ************************************************************************* //
