/*--------------------------------*- C++ -*----------------------------------*\
| =========                 |                                                 |
| \\      /  F ield         | OpenFOAM: The Open Source CFD Toolbox           |
|  \\    /   O peration     | Version:  2.1.1                                 |
|   \\  /    A nd           | Web:      www.OpenFOAM.org                      |
|    \\/     M anipulation  |                                                 |
\*---------------------------------------------------------------------------*/
FoamFile
{
    version     2.0;
    format      ascii;
    class       surfaceScalarField;
    location    "0.1";
    object      phi;
}
// * * * * * * * * * * * * * * * * * * * * * * * * * * * * * * * * * * * * * //

dimensions      [0 3 -1 0 0 0 0];

internalField   nonuniform List<scalar> 
370
(
1.39964e-08
-1.39958e-08
-2.19318e-08
3.59287e-08
-1.12588e-07
9.0656e-08
-2.4175e-07
1.29162e-07
-3.89941e-07
1.48191e-07
-5.38754e-07
1.48813e-07
-6.72361e-07
1.33607e-07
-7.78081e-07
1.0572e-07
-8.46513e-07
6.84321e-08
2.50832e-08
-3.36793e-08
1.96827e-08
-1.77523e-07
1.79772e-07
-4.27062e-07
3.40194e-07
-7.52109e-07
4.54209e-07
-1.11379e-06
5.09876e-07
-1.47272e-06
5.07738e-07
-1.79334e-06
4.54224e-07
-2.04624e-06
3.58625e-07
-2.2093e-06
2.31488e-07
8.40441e-08
-9.07628e-08
1.10445e-07
-3.5135e-07
4.40359e-07
-7.52424e-07
7.41268e-07
-1.24823e-06
9.50013e-07
-1.78552e-06
1.04717e-06
-2.31106e-06
1.03328e-06
-2.77662e-06
9.19783e-07
-3.14204e-06
7.2404e-07
-3.37693e-06
4.66381e-07
1.6886e-07
-1.42987e-07
2.53432e-07
-5.1753e-07
8.14903e-07
-1.06533e-06
1.28907e-06
-1.72108e-06
1.60577e-06
-2.41703e-06
1.74311e-06
-3.08847e-06
1.70472e-06
-3.67804e-06
1.50935e-06
-4.13843e-06
1.18443e-06
-4.43399e-06
7.6194e-07
2.76607e-07
-1.90909e-07
4.44341e-07
-6.75645e-07
1.29964e-06
-1.36678e-06
1.98021e-06
-2.17717e-06
2.41616e-06
-3.02351e-06
2.58945e-06
-3.83035e-06
2.51156e-06
-4.53302e-06
2.21203e-06
-5.07935e-06
1.73076e-06
-5.43045e-06
1.11304e-06
4.07323e-07
-2.3709e-07
6.81431e-07
-8.30601e-07
1.89315e-06
-1.66386e-06
2.81346e-06
-2.6263e-06
3.3786e-06
-3.6182e-06
3.58135e-06
-4.55373e-06
3.44709e-06
-5.36236e-06
3.02066e-06
-5.9889e-06
2.3573e-06
-6.39295e-06
1.51708e-06
5.62612e-07
-2.8408e-07
9.6551e-07
-9.88025e-07
2.5971e-06
-1.96411e-06
3.78955e-06
-3.0766e-06
4.49109e-06
-4.20876e-06
4.71351e-06
-5.26523e-06
4.50356e-06
-6.17144e-06
3.92686e-06
-6.87145e-06
3.05731e-06
-7.32535e-06
1.97098e-06
7.44323e-07
-3.34165e-07
1.29968e-06
-1.15302e-06
3.41595e-06
-2.27344e-06
4.90996e-06
-3.53199e-06
5.74965e-06
-4.79477e-06
5.97629e-06
-5.95869e-06
5.66748e-06
-6.94814e-06
4.91631e-06
-7.70972e-06
3.8189e-06
-8.20687e-06
2.46814e-06
9.53045e-07
-3.89558e-07
1.68923e-06
-1.33011e-06
4.35651e-06
-2.59544e-06
6.17529e-06
-3.99077e-06
7.14498e-06
-5.36562e-06
7.35114e-06
-6.61263e-06
6.91449e-06
-7.65998e-06
5.96366e-06
-8.46169e-06
4.62061e-06
-8.98869e-06
2.99513e-06
1.18621e-06
-4.53014e-07
2.14225e-06
-1.52411e-06
5.4276e-06
-2.93157e-06
7.58275e-06
-4.44456e-06
8.65796e-06
-5.89816e-06
8.80474e-06
-7.18688e-06
8.20321e-06
-8.25003e-06
7.02681e-06
-9.05605e-06
5.42663e-06
-9.58899e-06
3.52807e-06
1.43573e-06
-5.2895e-07
2.6712e-06
-1.74158e-06
6.64023e-06
-3.28143e-06
9.1226e-06
-4.8765e-06
1.0253e-05
-6.35298e-06
1.02812e-05
-7.61745e-06
9.46769e-06
-8.6312e-06
8.04055e-06
-9.38631e-06
6.18175e-06
-9.88701e-06
4.02877e-06
1.68534e-06
-6.25304e-07
3.2965e-06
-1.99268e-06
8.00761e-06
-3.64192e-06
1.07718e-05
-5.25694e-06
1.18681e-05
-6.66733e-06
1.16916e-05
-7.80832e-06
1.06087e-05
-8.67803e-06
8.91026e-06
-9.30338e-06
6.80709e-06
-9.71641e-06
4.44181e-06
1.90812e-06
-7.5657e-07
4.05307e-06
-2.29248e-06
9.54351e-06
-4.00255e-06
1.24819e-05
-5.53275e-06
1.33983e-05
-6.74125e-06
1.29001e-05
-7.61742e-06
1.14849e-05
-8.21486e-06
9.5077e-06
-8.6067e-06
7.19894e-06
-8.85909e-06
4.69419e-06
2.06554e-06
-9.4825e-07
5.00132e-06
-2.65848e-06
1.12537e-05
-4.33028e-06
1.41537e-05
-5.60297e-06
1.4671e-05
-6.41085e-06
1.3708e-05
-6.83319e-06
1.19072e-05
-6.99871e-06
9.67323e-06
-7.0342e-06
7.23442e-06
-7.04096e-06
4.70096e-06
2.11013e-06
-1.24049e-06
6.24181e-06
-3.09385e-06
1.31071e-05
-4.52837e-06
1.55882e-05
-5.26673e-06
1.54093e-05
-5.39947e-06
1.38407e-05
-5.13756e-06
1.16453e-05
-4.69667e-06
9.23233e-06
-4.25287e-06
6.79062e-06
-3.93294e-06
4.38104e-06
1.99448e-06
-1.67663e-06
7.91844e-06
-3.52305e-06
1.49535e-05
-4.33473e-06
1.63999e-05
-4.1199e-06
1.51945e-05
-3.2365e-06
1.29573e-05
-2.05441e-06
1.04632e-05
-8.61799e-07
8.03973e-06
1.43862e-07
5.78496e-06
8.36886e-07
3.68801e-06
1.68951e-06
-2.23271e-06
1.01512e-05
-3.59779e-06
1.63186e-05
-3.09361e-06
1.58957e-05
-1.37019e-06
1.34711e-05
8.59011e-07
1.07281e-05
3.10506e-06
8.21714e-06
5.07727e-06
6.06752e-06
6.61888e-06
4.24335e-06
7.64985e-06
2.65704e-06
1.2116e-06
-2.57478e-06
1.27259e-05
-2.18794e-06
1.59318e-05
7.0742e-07
1.30004e-05
4.45049e-06
9.72799e-06
8.1043e-06
7.07431e-06
1.12622e-05
5.05922e-06
1.378e-05
3.54973e-06
1.56309e-05
2.39242e-06
1.68289e-05
1.4591e-06
6.51088e-07
-7.84953e-07
1.35109e-05
4.07934e-06
1.10675e-05
1.02924e-05
6.78726e-06
1.57829e-05
4.23755e-06
2.01402e-05
2.71694e-06
2.34327e-05
1.76673e-06
2.58283e-05
1.15413e-06
2.74831e-05
7.37619e-07
2.85115e-05
4.30698e-07
1.8066e-07
1.35109e-05
2.45784e-05
3.13656e-05
3.56032e-05
3.83201e-05
4.00868e-05
4.1241e-05
4.19786e-05
4.24093e-05
)
;

boundaryField
{
    movingWall
    {
        type            calculated;
        value           uniform 0;
    }
    fixedWalls
    {
        type            calculated;
        value           uniform 0;
    }
    frontAndBack
    {
        type            empty;
        value           nonuniform 0();
    }
    procBoundary0to1
    {
        type            processor;
        value           nonuniform List<scalar> 
20
(
-8.71596e-07
-2.26826e-06
-3.46175e-06
-4.54174e-06
-5.56117e-06
-6.54824e-06
-7.50706e-06
-8.41559e-06
-9.22185e-06
-9.83852e-06
-1.01366e-05
-9.93919e-06
-9.01651e-06
-7.08554e-06
-3.81729e-06
1.14185e-06
8.12776e-06
1.73894e-05
2.8982e-05
4.25899e-05
)
;
    }
}


// ************************************************************************* //
