/*--------------------------------*- C++ -*----------------------------------*\
| =========                 |                                                 |
| \\      /  F ield         | OpenFOAM: The Open Source CFD Toolbox           |
|  \\    /   O peration     | Version:  2.1.1                                 |
|   \\  /    A nd           | Web:      www.OpenFOAM.org                      |
|    \\/     M anipulation  |                                                 |
\*---------------------------------------------------------------------------*/
FoamFile
{
    version     2.0;
    format      ascii;
    class       volVectorField;
    location    "0.1";
    object      U;
}
// * * * * * * * * * * * * * * * * * * * * * * * * * * * * * * * * * * * * * //

dimensions      [0 1 -1 0 0 0 0];

internalField   nonuniform List<vector> 
200
(
(0.000249287 -0.000245939 0)
(0.000138014 0.000110754 0)
(-0.00116049 0.000556974 0)
(-0.00342891 0.000872135 0)
(-0.00627921 0.00103004 0)
(-0.00932125 0.00104557 0)
(-0.0122069 0.000943122 0)
(-0.0146482 0.000748708 0)
(-0.0164236 0.000487069 0)
(-0.0173791 0.000181999 0)
(-7.65748e-05 -0.000165538 0)
(-0.00158652 0.00162046 0)
(-0.00560279 0.0035612 0)
(-0.0115311 0.00495472 0)
(-0.0185865 0.0056502 0)
(-0.0259698 0.0056658 0)
(-0.0329195 0.00508645 0)
(-0.0387769 0.00402527 0)
(-0.0430227 0.00260508 0)
(-0.0452924 0.000953569 0)
(-0.000520528 0.00107509 0)
(-0.00365297 0.00564624 0)
(-0.0104217 0.0100613 0)
(-0.019674 0.0131899 0)
(-0.0302724 0.0147 0)
(-0.0411483 0.0145918 0)
(-0.0512757 0.0130341 0)
(-0.0597575 0.0102824 0)
(-0.0658818 0.00663316 0)
(-0.0691474 0.00240607 0)
(-0.000914202 0.0034255 0)
(-0.00560549 0.0120293 0)
(-0.0150718 0.0196062 0)
(-0.0274964 0.0247928 0)
(-0.04135 0.0271474 0)
(-0.0553242 0.026691 0)
(-0.0681934 0.0237107 0)
(-0.0788974 0.018643 0)
(-0.0866006 0.0120021 0)
(-0.0907148 0.0043482 0)
(-0.00126115 0.00677298 0)
(-0.00743265 0.0206356 0)
(-0.019536 0.0320122 0)
(-0.0350527 0.03948 0)
(-0.0520249 0.0426082 0)
(-0.0689016 0.0415209 0)
(-0.0842868 0.0366814 0)
(-0.0970022 0.0287495 0)
(-0.106134 0.0184899 0)
(-0.111042 0.0067304 0)
(-0.00158843 0.0110539 0)
(-0.00920934 0.0314176 0)
(-0.0239303 0.0472574 0)
(-0.0425072 0.0572181 0)
(-0.0625243 0.0610122 0)
(-0.0821827 0.0589759 0)
(-0.0999361 0.0518282 0)
(-0.114524 0.0405052 0)
(-0.124993 0.0260532 0)
(-0.130682 0.00958177 0)
(-0.00192206 0.0162587 0)
(-0.0110198 0.0443807 0)
(-0.0283914 0.065348 0)
(-0.0500219 0.0779831 0)
(-0.0730099 0.0822888 0)
(-0.095312 0.0789461 0)
(-0.115261 0.0690298 0)
(-0.131559 0.0538142 0)
(-0.143259 0.0346547 0)
(-0.149711 0.0129452 0)
(-0.00228539 0.0224269 0)
(-0.0129426 0.0595881 0)
(-0.0330406 0.0863122 0)
(-0.0577079 0.101727 0)
(-0.083526 0.106306 0)
(-0.108227 0.10124 0)
(-0.130078 0.0880798 0)
(-0.147807 0.068508 0)
(-0.16054 0.0442109 0)
(-0.16769 0.0168519 0)
(-0.00270226 0.0296421 0)
(-0.0150547 0.0771553 0)
(-0.0379778 0.110181 0)
(-0.0656041 0.128335 0)
(-0.0939631 0.132805 0)
(-0.120613 0.125504 0)
(-0.143843 0.108606 0)
(-0.162513 0.0842744 0)
(-0.175913 0.0545374 0)
(-0.183591 0.0212912 0)
(-0.00320496 0.0380355 0)
(-0.0174494 0.0972411 0)
(-0.0432952 0.136946 0)
(-0.0736699 0.15755 0)
(-0.104023 0.161299 0)
(-0.13184 0.151113 0)
(-0.155578 0.129963 0)
(-0.174379 0.100564 0)
(-0.187824 0.0652786 0)
(-0.195695 0.0261679 0)
(-0.00384863 0.0478061 0)
(-0.0202694 0.120046 0)
(-0.0491 0.166506 0)
(-0.081771 0.188861 0)
(-0.113164 0.19094 0)
(-0.140874 0.177033 0)
(-0.163758 0.151108 0)
(-0.181446 0.11649 0)
(-0.193975 0.0758304 0)
(-0.201475 0.0312506 0)
(-0.0047372 0.0592716 0)
(-0.0237566 0.145821 0)
(-0.0555324 0.198575 0)
(-0.0896272 0.221351 0)
(-0.120473 0.220334 0)
(-0.146116 0.201655 0)
(-0.166145 0.17047 0)
(-0.180938 0.130726 0)
(-0.191178 0.0852668 0)
(-0.197464 0.0361174 0)
(-0.00606933 0.0729712 0)
(-0.02832 0.174862 0)
(-0.0627389 0.232514 0)
(-0.0966484 0.253442 0)
(-0.124413 0.247303 0)
(-0.145109 0.222608 0)
(-0.159515 0.185829 0)
(-0.169056 0.141441 0)
(-0.175217 0.0922963 0)
(-0.179159 0.0401149 0)
(-0.00821343 0.0898461 0)
(-0.0345977 0.207449 0)
(-0.070696 0.266998 0)
(-0.101511 0.282491 0)
(-0.122276 0.268572 0)
(-0.134015 0.236596 0)
(-0.139254 0.194272 0)
(-0.140702 0.146318 0)
(-0.140709 0.0952968 0)
(-0.140982 0.0423642 0)
(-0.0117893 0.111499 0)
(-0.0433799 0.243538 0)
(-0.0785987 0.299349 0)
(-0.101153 0.304203 0)
(-0.109118 0.279452 0)
(-0.106736 0.239354 0)
(-0.098754 0.192335 0)
(-0.0891784 0.142778 0)
(-0.0810397 0.0925116 0)
(-0.0763886 0.0418649 0)
(-0.0175678 0.140585 0)
(-0.0548725 0.281869 0)
(-0.0830655 0.324237 0)
(-0.0885794 0.311822 0)
(-0.0758525 0.273698 0)
(-0.0535861 0.225984 0)
(-0.0286904 0.176557 0)
(-0.00594952 0.128534 0)
(0.0115133 0.0824994 0)
(0.0217762 0.0377586 0)
(-0.0254614 0.181687 0)
(-0.0658544 0.317622 0)
(-0.0735542 0.331067 0)
(-0.0484909 0.294976 0)
(-0.0062185 0.243701 0)
(0.0403374 0.191842 0)
(0.0835384 0.144542 0)
(0.119217 0.102554 0)
(0.145227 0.0648489 0)
(0.16049 0.0297576 0)
(-0.029652 0.239183 0)
(-0.0608832 0.33571 0)
(-0.0220823 0.300356 0)
(0.0502533 0.239897 0)
(0.127096 0.182662 0)
(0.196324 0.135082 0)
(0.253447 0.0971088 0)
(0.297177 0.0666112 0)
(0.32761 0.0411903 0)
(0.34518 0.0187035 0)
(0.00808791 0.281877 0)
(0.0197778 0.294965 0)
(0.139009 0.210926 0)
(0.264309 0.143392 0)
(0.364087 0.0970746 0)
(0.439933 0.0656563 0)
(0.496161 0.0441233 0)
(0.536157 0.0287927 0)
(0.562626 0.0171365 0)
(0.577436 0.0074596 0)
(0.299611 0.146098 0)
(0.396286 0.127507 0)
(0.557422 0.0760851 0)
(0.674455 0.0437101 0)
(0.743803 0.0255529 0)
(0.787004 0.0152209 0)
(0.815272 0.00919252 0)
(0.833685 0.00549381 0)
(0.845074 0.0030177 0)
(0.851044 0.00114732 0)
)
;

boundaryField
{
    movingWall
    {
        type            fixedValue;
        value           uniform (1 0 0);
    }
    fixedWalls
    {
        type            fixedValue;
        value           uniform (0 0 0);
    }
    frontAndBack
    {
        type            empty;
    }
    procBoundary0to1
    {
        type            processor;
        value           nonuniform List<vector> 
20
(
(-0.0174241 -0.000142358 0)
(-0.0453786 -0.000795424 0)
(-0.0692716 -0.00205915 0)
(-0.0909074 -0.00372181 0)
(-0.111359 -0.00565091 0)
(-0.1312 -0.00774342 0)
(-0.150522 -0.00987489 0)
(-0.168883 -0.0118927 0)
(-0.185232 -0.013618 0)
(-0.197797 -0.0148559 0)
(-0.20395 -0.0154185 0)
(-0.20008 -0.0151608 0)
(-0.181505 -0.0140289 0)
(-0.142485 -0.0121069 0)
(-0.0764062 -0.00964275 0)
(0.0237228 -0.00701871 0)
(0.164364 -0.00463759 0)
(0.350067 -0.00277316 0)
(0.581496 -0.00148254 0)
(0.852337 -0.00049568 0)
)
;
    }
}


// ************************************************************************* //
