/*--------------------------------*- C++ -*----------------------------------*\
| =========                 |                                                 |
| \\      /  F ield         | OpenFOAM: The Open Source CFD Toolbox           |
|  \\    /   O peration     | Version:  2.1.1                                 |
|   \\  /    A nd           | Web:      www.OpenFOAM.org                      |
|    \\/     M anipulation  |                                                 |
\*---------------------------------------------------------------------------*/
FoamFile
{
    version     2.0;
    format      ascii;
    class       volScalarField;
    location    "0.3";
    object      p;
}
// * * * * * * * * * * * * * * * * * * * * * * * * * * * * * * * * * * * * * //

dimensions      [0 2 -2 0 0 0 0];

internalField   nonuniform List<scalar> 
200
(
0.0432592
0.0588291
0.0725818
0.0833111
0.0900553
0.0922697
0.0900293
0.0842483
0.0768861
0.0710733
0.0417641
0.0543921
0.0655905
0.074414
0.0801243
0.08232
0.081082
0.0770602
0.0712802
0.0653247
0.0407786
0.0518757
0.0617731
0.0696412
0.074812
0.0768832
0.0758472
0.072092
0.0658123
0.0575432
0.0400047
0.0506602
0.060238
0.0679214
0.0730087
0.0750073
0.073772
0.0694628
0.0616105
0.0501112
0.0390978
0.0500764
0.0600544
0.0681709
0.0736324
0.075804
0.0743756
0.069297
0.0595337
0.0445466
0.0378271
0.0499103
0.0610541
0.0703095
0.0767412
0.0795236
0.078146
0.0723412
0.0605478
0.0418999
0.0359237
0.049952
0.0631187
0.0743523
0.0825289
0.0865766
0.0857281
0.079455
0.0656291
0.0430818
0.0330676
0.049942
0.0660906
0.0802975
0.0912083
0.0974376
0.097878
0.0916441
0.075905
0.0491264
0.0289169
0.0496027
0.0698055
0.0881628
0.103056
0.112709
0.115559
0.1102
0.0928429
0.0614208
0.0231619
0.048671
0.0741044
0.0979812
0.118405
0.133134
0.139997
0.136826
0.118449
0.0819425
0.0156214
0.0469638
0.0788654
0.109803
0.137633
0.159594
0.172735
0.173786
0.155528
0.113579
0.00638714
0.0444845
0.0840654
0.123713
0.161146
0.193095
0.215676
0.224085
0.208058
0.160639
-0.00400396
0.04155
0.089853
0.139839
0.189328
0.234698
0.271083
0.291672
0.28175
0.229782
-0.0144331
0.0388744
0.0965657
0.158287
0.222384
0.285297
0.341405
0.381583
0.384921
0.331839
-0.0232172
0.0374857
0.104565
0.178848
0.259871
0.344979
0.428624
0.499707
0.529681
0.485396
-0.0284396
0.0383579
0.113819
0.200482
0.299984
0.412034
0.533037
0.651782
0.732778
0.7224
-0.0287431
0.041704
0.123277
0.220728
0.338935
0.482163
0.652004
0.841349
1.01528
1.09751
-0.0246149
0.0454637
0.128951
0.233081
0.367112
0.542686
0.771301
1.05932
1.40329
1.73015
-0.0193104
0.0427907
0.119226
0.218793
0.354822
0.547993
0.826401
1.23659
1.91168
2.9242
-0.0166849
0.0276638
0.0846209
0.161742
0.272423
0.44211
0.718229
1.22572
2.41104
4.84854
)
;

boundaryField
{
    movingWall
    {
        type            zeroGradient;
    }
    fixedWalls
    {
        type            zeroGradient;
    }
    frontAndBack
    {
        type            empty;
    }
    procBoundary1to0
    {
        type            processor;
        value           nonuniform List<scalar> 
20
(
0.0271453
0.0287084
0.0293472
0.0290937
0.0279481
0.0256784
0.021976
0.0164843
0.00882432
-0.00133418
-0.0141508
-0.0294396
-0.0464594
-0.0637259
-0.0789572
-0.0893454
-0.092416
-0.0871591
-0.0735374
-0.0534643
)
;
    }
}


// ************************************************************************* //
