/*--------------------------------*- C++ -*----------------------------------*\
| =========                 |                                                 |
| \\      /  F ield         | OpenFOAM: The Open Source CFD Toolbox           |
|  \\    /   O peration     | Version:  2.1.1                                 |
|   \\  /    A nd           | Web:      www.OpenFOAM.org                      |
|    \\/     M anipulation  |                                                 |
\*---------------------------------------------------------------------------*/
FoamFile
{
    version     2.0;
    format      ascii;
    class       surfaceScalarField;
    location    "0.3";
    object      phi;
}
// * * * * * * * * * * * * * * * * * * * * * * * * * * * * * * * * * * * * * //

dimensions      [0 3 -1 0 0 0 0];

internalField   nonuniform List<scalar> 
370
(
-8.64241e-07
-2.13116e-08
-7.97326e-07
-6.69153e-08
-6.90037e-07
-1.07289e-07
-5.51937e-07
-1.381e-07
-3.96919e-07
-1.55018e-07
-2.42736e-07
-1.54184e-07
-1.09728e-07
-1.33008e-07
-1.84164e-08
-9.13118e-08
1.56881e-08
-3.41043e-08
1.56882e-08
-2.25377e-06
-7.34417e-08
-2.09293e-06
-2.27754e-07
-1.83616e-06
-3.6406e-07
-1.50596e-06
-4.68299e-07
-1.13402e-06
-5.26956e-07
-7.59484e-07
-5.28723e-07
-4.2538e-07
-4.67111e-07
-1.72684e-07
-3.44007e-07
-3.08011e-08
-1.75988e-07
-1.51128e-08
-3.44339e-06
-1.4838e-07
-3.21208e-06
-4.59059e-07
-2.84195e-06
-7.34191e-07
-2.36368e-06
-9.46574e-07
-1.82022e-06
-1.07041e-06
-1.26442e-06
-1.08452e-06
-7.54485e-07
-9.77049e-07
-3.46954e-07
-7.51538e-07
-8.73318e-08
-4.35609e-07
-1.02445e-07
-4.52002e-06
-2.40047e-07
-4.23251e-06
-7.46568e-07
-3.76917e-06
-1.19753e-06
-3.16547e-06
-1.55027e-06
-2.47175e-06
-1.76414e-06
-1.75098e-06
-1.80529e-06
-1.07446e-06
-1.65357e-06
-5.15113e-07
-1.31088e-06
-1.39308e-07
-8.11414e-07
-2.41753e-07
-5.53548e-06
-3.42811e-07
-5.20211e-06
-1.07993e-06
-4.65865e-06
-1.741e-06
-3.94276e-06
-2.26616e-06
-3.10955e-06
-2.59735e-06
-2.23039e-06
-2.68445e-06
-1.38957e-06
-2.49439e-06
-6.78466e-07
-2.02199e-06
-1.87759e-07
-1.30212e-06
-4.29511e-07
-6.51804e-06
-4.50536e-07
-6.14854e-06
-1.44943e-06
-5.53631e-06
-2.35323e-06
-4.71873e-06
-3.08374e-06
-3.75331e-06
-3.56277e-06
-2.71837e-06
-3.71939e-06
-1.71147e-06
-3.50129e-06
-8.44628e-07
-2.88883e-06
-2.3617e-07
-1.91058e-06
-6.65681e-07
-7.47291e-06
-5.5599e-07
-7.07888e-06
-1.84346e-06
-6.41168e-06
-3.02043e-06
-5.50541e-06
-3.99e-06
-4.41693e-06
-4.65125e-06
-3.22928e-06
-4.90704e-06
-2.05289e-06
-4.67767e-06
-1.02251e-06
-3.91921e-06
-2.88273e-07
-2.64482e-06
-9.53953e-07
-8.37976e-06
-6.50633e-07
-7.97671e-06
-2.24651e-06
-7.27441e-06
-3.72273e-06
-6.29982e-06
-4.9646e-06
-5.10457e-06
-5.8465e-06
-3.77245e-06
-6.23916e-06
-2.42484e-06
-6.02529e-06
-1.22072e-06
-5.12333e-06
-3.47701e-07
-3.51784e-06
-1.30165e-06
-9.1885e-06
-7.24896e-07
-8.79735e-06
-2.63767e-06
-8.08925e-06
-4.43083e-06
-7.07893e-06
-5.97492e-06
-5.80625e-06
-7.11918e-06
-4.34899e-06
-7.69641e-06
-2.83478e-06
-7.5395e-06
-1.44708e-06
-6.51103e-06
-4.18094e-07
-4.54682e-06
-1.71975e-06
-9.81337e-06
-7.69058e-07
-9.46133e-06
-2.9897e-06
-8.78907e-06
-5.10309e-06
-7.79297e-06
-6.97102e-06
-6.49218e-06
-8.41996e-06
-4.94795e-06
-9.24065e-06
-3.2851e-06
-9.20235e-06
-1.70867e-06
-8.08746e-06
-5.03585e-07
-5.7519e-06
-2.22333e-06
-1.01258e-05
-7.74795e-07
-9.84634e-06
-3.26914e-06
-9.266e-06
-5.68343e-06
-8.35634e-06
-7.88068e-06
-7.1047e-06
-9.6716e-06
-5.5407e-06
-1.08046e-05
-3.7707e-06
-1.09724e-05
-2.01217e-06
-9.846e-06
-6.09688e-07
-7.15438e-06
-2.83302e-06
-9.9473e-06
-7.37363e-07
-9.77866e-06
-3.43778e-06
-9.36096e-06
-6.10113e-06
-8.63568e-06
-8.60596e-06
-7.54643e-06
-1.07609e-05
-6.07161e-06
-1.22795e-05
-4.27429e-06
-1.27697e-05
-2.36366e-06
-1.17566e-05
-7.44779e-07
-8.77326e-06
-3.5778e-06
-9.04451e-06
-6.58029e-07
-9.0259e-06
-3.4564e-06
-8.85274e-06
-6.2743e-06
-8.43494e-06
-9.02376e-06
-7.663e-06
-1.15328e-05
-6.44207e-06
-1.35004e-05
-4.75629e-06
-1.44555e-05
-2.76677e-06
-1.37462e-05
-9.22439e-07
-1.06176e-05
-4.50024e-06
-7.12875e-06
-5.4591e-07
-7.29391e-06
-3.29124e-06
-7.44877e-06
-6.11943e-06
-7.478e-06
-8.99453e-06
-7.21803e-06
-1.17928e-05
-6.48282e-06
-1.42356e-05
-5.13348e-06
-1.58048e-05
-3.215e-06
-1.56646e-05
-1.16439e-06
-1.26682e-05
-5.66463e-06
-3.8653e-06
-4.1779e-07
-4.23281e-06
-2.92373e-06
-4.78224e-06
-5.57e-06
-5.3912e-06
-8.38556e-06
-5.8586e-06
-1.13254e-05
-5.90665e-06
-1.41876e-05
-5.23287e-06
-1.64786e-05
-3.66629e-06
-1.72312e-05
-1.50009e-06
-1.48344e-05
-7.16471e-06
1.10185e-06
-2.94245e-07
5.40859e-07
-2.36273e-06
-4.23112e-07
-4.60603e-06
-1.69272e-06
-7.11595e-06
-3.07253e-06
-9.94556e-06
-4.23091e-06
-1.30292e-05
-4.6957e-06
-1.60138e-05
-3.96721e-06
-1.79597e-05
-1.94493e-06
-1.68567e-05
-9.10965e-06
8.10365e-06
-1.91601e-07
7.39882e-06
-1.6579e-06
6.08667e-06
-3.29388e-06
4.19902e-06
-5.22831e-06
1.85403e-06
-7.60056e-06
-6.61805e-07
-1.05133e-05
-2.79223e-06
-1.38834e-05
-3.66212e-06
-1.70898e-05
-2.41155e-06
-1.81073e-05
-1.15212e-05
1.73761e-05
-1.13143e-07
1.66303e-05
-9.12074e-07
1.5167e-05
-1.83059e-06
1.29234e-05
-2.98468e-06
9.86163e-06
-4.53883e-06
6.06188e-06
-6.71359e-06
1.91229e-06
-9.73376e-06
-1.55965e-06
-1.36179e-05
-2.45834e-06
-1.72086e-05
-1.39795e-05
2.8962e-05
-4.90243e-08
2.83386e-05
-2.88669e-07
2.70817e-05
-5.73706e-07
2.5055e-05
-9.57935e-07
2.20516e-05
-1.53551e-06
1.78154e-05
-2.4774e-06
1.21723e-05
-4.09067e-06
5.4777e-06
-6.92323e-06
-1.29174e-07
-1.16017e-05
-1.41087e-05
4.25575e-05
4.22688e-05
4.16951e-05
4.07372e-05
3.92017e-05
3.67243e-05
3.26336e-05
2.57104e-05
1.41087e-05
)
;

boundaryField
{
    movingWall
    {
        type            calculated;
        value           uniform 0;
    }
    fixedWalls
    {
        type            calculated;
        value           uniform 0;
    }
    frontAndBack
    {
        type            empty;
        value           nonuniform 0();
    }
    procBoundary1to0
    {
        type            processor;
        value           nonuniform List<scalar> 
20
(
8.85554e-07
2.3059e-06
3.51833e-06
4.61169e-06
5.63824e-06
6.62577e-06
7.57837e-06
8.4744e-06
9.26277e-06
9.85753e-06
1.01315e-05
9.90987e-06
8.96518e-06
7.01663e-06
3.73718e-06
-1.2254e-06
-8.20629e-06
-1.74546e-05
-2.90261e-05
-4.26065e-05
)
;
    }
}


// ************************************************************************* //
