/*--------------------------------*- C++ -*----------------------------------*\
| =========                 |                                                 |
| \\      /  F ield         | OpenFOAM: The Open Source CFD Toolbox           |
|  \\    /   O peration     | Version:  2.1.1                                 |
|   \\  /    A nd           | Web:      www.OpenFOAM.org                      |
|    \\/     M anipulation  |                                                 |
\*---------------------------------------------------------------------------*/
FoamFile
{
    version     2.0;
    format      ascii;
    class       volVectorField;
    location    "0.3";
    object      U;
}
// * * * * * * * * * * * * * * * * * * * * * * * * * * * * * * * * * * * * * //

dimensions      [0 1 -1 0 0 0 0];

internalField   nonuniform List<vector> 
200
(
(-0.0177022 -0.000145161 0)
(-0.0168038 -0.000468208 0)
(-0.015029 -0.000755287 0)
(-0.0125244 -0.000974167 0)
(-0.00952587 -0.00109111 0)
(-0.00635465 -0.00107394 0)
(-0.00340048 -0.000898067 0)
(-0.00108639 -0.00055636 0)
(0.000196401 -9.03659e-05 0)
(0.000267841 0.000262367 0)
(-0.0461291 -0.000812918 0)
(-0.043959 -0.00254663 0)
(-0.0396991 -0.00407823 0)
(-0.0337012 -0.00524473 0)
(-0.0265122 -0.00588622 0)
(-0.0188538 -0.00586455 0)
(-0.0115662 -0.00509451 0)
(-0.00551308 -0.00358926 0)
(-0.00149303 -0.00155907 0)
(-4.25808e-05 0.000227438 0)
(-0.0703999 -0.00210614 0)
(-0.0672816 -0.00652481 0)
(-0.0611499 -0.0104285 0)
(-0.0524865 -0.0134203 0)
(-0.0420355 -0.0151227 0)
(-0.0307728 -0.0152249 0)
(-0.0198284 -0.0135554 0)
(-0.0103632 -0.0101785 0)
(-0.00354839 -0.00555084 0)
(-0.000476826 -0.000948801 0)
(-0.0923022 -0.00380755 0)
(-0.0884472 -0.0117957 0)
(-0.0808022 -0.018881 0)
(-0.0699207 -0.024375 0)
(-0.0566674 -0.0276263 0)
(-0.0421935 -0.0281004 0)
(-0.0278557 -0.0254965 0)
(-0.0150932 -0.0198908 0)
(-0.00550485 -0.0119272 0)
(-0.000861568 -0.00322474 0)
(-0.112896 -0.00577991 0)
(-0.108471 -0.0180536 0)
(-0.0995594 -0.0290098 0)
(-0.0867369 -0.0376308 0)
(-0.0709339 -0.0429429 0)
(-0.0534289 -0.0441268 0)
(-0.0357836 -0.0406769 0)
(-0.0197346 -0.0325911 0)
(-0.00737037 -0.0205897 0)
(-0.00120363 -0.00649788 0)
(-0.132748 -0.00791573 0)
(-0.127919 -0.0251306 0)
(-0.117963 -0.0406227 0)
(-0.103431 -0.0530165 0)
(-0.0852666 -0.0609631 0)
(-0.0648338 -0.0632769 0)
(-0.0438843 -0.0591391 0)
(-0.024477 -0.0483421 0)
(-0.00925404 -0.0315561 0)
(-0.0015377 -0.0107281 0)
(-0.151947 -0.0100857 0)
(-0.146911 -0.0328306 0)
(-0.136177 -0.0534966 0)
(-0.12022 -0.070333 0)
(-0.0999299 -0.0815609 0)
(-0.0766993 -0.0855284 0)
(-0.0524387 -0.0809597 0)
(-0.029544 -0.0672739 0)
(-0.0112833 -0.0449375 0)
(-0.00190002 -0.0159509 0)
(-0.17006 -0.0121325 0)
(-0.165067 -0.0408906 0)
(-0.153926 -0.0673104 0)
(-0.136966 -0.0892683 0)
(-0.11494 -0.104506 0)
(-0.0891737 -0.110791 0)
(-0.0616692 -0.106207 0)
(-0.0351475 -0.0895754 0)
(-0.0135855 -0.0609468 0)
(-0.00232627 -0.0222766 0)
(-0.186055 -0.0138734 0)
(-0.181418 -0.0489535 0)
(-0.170391 -0.0815887 0)
(-0.153078 -0.109318 0)
(-0.129968 -0.129374 0)
(-0.102184 -0.138822 0)
(-0.0716882 -0.134881 0)
(-0.0414662 -0.115464 0)
(-0.0162877 -0.0798921 0)
(-0.00285464 -0.0298884 0)
(-0.198185 -0.0151111 0)
(-0.194281 -0.0565417 0)
(-0.184079 -0.0956367 0)
(-0.167365 -0.129682 0)
(-0.144214 -0.155416 0)
(-0.115338 -0.16909 0)
(-0.0824451 -0.166796 0)
(-0.0486357 -0.145118 0)
(-0.0195285 -0.102156 0)
(-0.00353353 -0.0390458 0)
(-0.203858 -0.015657 0)
(-0.20111 -0.0630465 0)
(-0.192649 -0.108485 0)
(-0.177857 -0.149164 0)
(-0.156224 -0.181408 0)
(-0.12778 -0.200599 0)
(-0.0936442 -0.201417 0)
(-0.056733 -0.178568 0)
(-0.0234798 -0.128169 0)
(-0.00443553 -0.0501029 0)
(-0.199505 -0.0153684 0)
(-0.198338 -0.0677389 0)
(-0.19272 -0.118861 0)
(-0.181576 -0.166071 0)
(-0.163647 -0.205481 0)
(-0.137968 -0.231653 0)
(-0.104597 -0.237618 0)
(-0.0657339 -0.215519 0)
(-0.0283778 -0.158364 0)
(-0.0056821 -0.0635506 0)
(-0.180489 -0.014196 0)
(-0.18127 -0.0698171 0)
(-0.179699 -0.125205 0)
(-0.174274 -0.178174 0)
(-0.162898 -0.224966 0)
(-0.143318 -0.259581 0)
(-0.113939 -0.273322 0)
(-0.0753938 -0.255061 0)
(-0.0345565 -0.193087 0)
(-0.00748633 -0.0801028 0)
(-0.141113 -0.0122303 0)
(-0.14406 -0.0685031 0)
(-0.147674 -0.125789 0)
(-0.150174 -0.182764 0)
(-0.148724 -0.236318 0)
(-0.139646 -0.28044 0)
(-0.119096 -0.30502 0)
(-0.0849369 -0.295154 0)
(-0.0424408 -0.232374 0)
(-0.0102161 -0.100835 0)
(-0.0748042 -0.00972588 0)
(-0.0798962 -0.0632074 0)
(-0.089468 -0.118986 0)
(-0.101793 -0.176952 0)
(-0.11369 -0.23528 0)
(-0.120308 -0.288877 0)
(-0.115265 -0.327191 0)
(-0.0922675 -0.33179 0)
(-0.0523161 -0.275401 0)
(-0.0144304 -0.127346 0)
(0.0253994 -0.00707051 0)
(0.0185016 -0.0537551 0)
(0.00297437 -0.103748 0)
(-0.0200012 -0.158316 0)
(-0.0476894 -0.217498 0)
(-0.0749874 -0.278357 0)
(-0.0935485 -0.331787 0)
(-0.0920647 -0.35768 0)
(-0.0632809 -0.319292 0)
(-0.0206337 -0.161973 0)
(0.165945 -0.00466885 0)
(0.157929 -0.0406255 0)
(0.137726 -0.0802438 0)
(0.105436 -0.125915 0)
(0.0622586 -0.179724 0)
(0.011803 -0.242018 0)
(-0.0378318 -0.307875 0)
(-0.0716804 -0.360141 0)
(-0.0700559 -0.356607 0)
(-0.0279123 -0.208375 0)
(0.351381 -0.0027924 0)
(0.343296 -0.025263 0)
(0.321463 -0.0507858 0)
(0.284638 -0.0820463 0)
(0.231569 -0.122444 0)
(0.162178 -0.175668 0)
(0.0798989 -0.24343 0)
(-0.00319083 -0.319135 0)
(-0.0546699 -0.368612 0)
(-0.0284594 -0.267618 0)
(0.582386 -0.00149396 0)
(0.57569 -0.0108441 0)
(0.557303 -0.021846 0)
(0.525131 -0.0363341 0)
(0.475774 -0.0572588 0)
(0.404535 -0.0893835 0)
(0.305175 -0.139741 0)
(0.173416 -0.216386 0)
(0.0411718 -0.311655 0)
(0.0184302 -0.299995 0)
(0.85267 -0.000499751 0)
(0.849379 -0.00221484 0)
(0.840997 -0.00433823 0)
(0.826139 -0.00742385 0)
(0.802077 -0.0125321 0)
(0.76362 -0.0217727 0)
(0.699108 -0.0392828 0)
(0.583952 -0.0726601 0)
(0.415827 -0.127868 0)
(0.308819 -0.149468 0)
)
;

boundaryField
{
    movingWall
    {
        type            fixedValue;
        value           uniform (1 0 0);
    }
    fixedWalls
    {
        type            fixedValue;
        value           uniform (0 0 0);
    }
    frontAndBack
    {
        type            empty;
    }
    procBoundary1to0
    {
        type            processor;
        value           nonuniform List<vector> 
20
(
(-0.0176584 0.000184468 0)
(-0.0460468 0.000966685 0)
(-0.0702819 0.00243858 0)
(-0.0921176 0.00440481 0)
(-0.112587 0.00681345 0)
(-0.132236 0.00969253 0)
(-0.151139 0.0130842 0)
(-0.168865 0.0170192 0)
(-0.184404 0.0214861 0)
(-0.196067 0.0263884 0)
(-0.201362 0.031493 0)
(-0.196866 0.0363748 0)
(-0.178122 0.0403772 0)
(-0.139598 0.0426173 0)
(-0.0747865 0.0420924 0)
(0.0234409 0.0379442 0)
(0.16205 0.029889 0)
(0.346472 0.0187771 0)
(0.57831 0.00748485 0)
(0.851374 0.00114982 0)
)
;
    }
}


// ************************************************************************* //
