/*--------------------------------*- C++ -*----------------------------------*\
| =========                 |                                                 |
| \\      /  F ield         | OpenFOAM: The Open Source CFD Toolbox           |
|  \\    /   O peration     | Version:  2.1.1                                 |
|   \\  /    A nd           | Web:      www.OpenFOAM.org                      |
|    \\/     M anipulation  |                                                 |
\*---------------------------------------------------------------------------*/
FoamFile
{
    version     2.0;
    format      ascii;
    class       volScalarField;
    location    "0.4";
    object      p;
}
// * * * * * * * * * * * * * * * * * * * * * * * * * * * * * * * * * * * * * //

dimensions      [0 2 -2 0 0 0 0];

internalField   nonuniform List<scalar> 
200
(
0.0432588
0.0588298
0.0725831
0.083313
0.0900574
0.0922718
0.090031
0.0842494
0.0768865
0.0710732
0.0417636
0.0543923
0.0655911
0.0744149
0.0801254
0.082321
0.0810828
0.0770606
0.0712801
0.0653241
0.0407782
0.0518757
0.0617733
0.0696416
0.0748124
0.0768836
0.0758474
0.0720919
0.0658117
0.057542
0.0400044
0.0506602
0.060238
0.0679215
0.0730088
0.0750072
0.0737718
0.0694623
0.0616094
0.0501092
0.0390975
0.0500764
0.0600543
0.0681708
0.0736322
0.0758036
0.0743751
0.0692961
0.0595321
0.044544
0.0378267
0.04991
0.0610537
0.0703091
0.0767406
0.0795229
0.0781451
0.0723399
0.0605459
0.041897
0.0359229
0.0499512
0.0631179
0.0743513
0.0825279
0.0865755
0.0857269
0.0794535
0.065627
0.0430787
0.0330662
0.0499406
0.0660892
0.080296
0.0912068
0.0974361
0.0978764
0.0916424
0.0759028
0.0491233
0.0289147
0.0496005
0.0698034
0.0881607
0.103054
0.112707
0.115557
0.110198
0.0928407
0.0614181
0.0231589
0.0486681
0.0741016
0.0979785
0.118402
0.133132
0.139995
0.136824
0.118447
0.0819403
0.0156178
0.0469603
0.078862
0.1098
0.13763
0.159592
0.172733
0.173784
0.155527
0.113577
0.00638309
0.0444806
0.0840617
0.12371
0.161143
0.193092
0.215674
0.224083
0.208057
0.160639
-0.00400819
0.0415459
0.0898493
0.139836
0.189326
0.234696
0.271081
0.291671
0.281749
0.229782
-0.0144371
0.0388704
0.0965622
0.158284
0.222381
0.285295
0.341404
0.381582
0.38492
0.33184
-0.0232208
0.0374823
0.104562
0.178845
0.259869
0.344977
0.428623
0.499707
0.529682
0.485398
-0.0284426
0.0383551
0.113817
0.20048
0.299983
0.412033
0.533037
0.651782
0.732779
0.722402
-0.0287454
0.0417017
0.123275
0.220727
0.338934
0.482163
0.652005
0.841349
1.01528
1.09751
-0.0246168
0.0454619
0.12895
0.23308
0.367111
0.542686
0.771301
1.05933
1.40329
1.73015
-0.019312
0.042789
0.119224
0.218792
0.354821
0.547993
0.826401
1.23659
1.91168
2.9242
-0.0166864
0.0276617
0.0846186
0.16174
0.272421
0.442108
0.718228
1.22572
2.41104
4.84854
)
;

boundaryField
{
    movingWall
    {
        type            zeroGradient;
    }
    fixedWalls
    {
        type            zeroGradient;
    }
    frontAndBack
    {
        type            empty;
    }
    procBoundary1to0
    {
        type            processor;
        value           nonuniform List<scalar> 
20
(
0.0271445
0.0287078
0.0293469
0.0290936
0.0279481
0.0256782
0.0219753
0.016483
0.00882229
-0.001337
-0.0141543
-0.0294436
-0.0464636
-0.0637299
-0.0789608
-0.0893483
-0.0924182
-0.0871607
-0.0735384
-0.053465
)
;
    }
}


// ************************************************************************* //
