/*--------------------------------*- C++ -*----------------------------------*\
| =========                 |                                                 |
| \\      /  F ield         | OpenFOAM: The Open Source CFD Toolbox           |
|  \\    /   O peration     | Version:  2.1.1                                 |
|   \\  /    A nd           | Web:      www.OpenFOAM.org                      |
|    \\/     M anipulation  |                                                 |
\*---------------------------------------------------------------------------*/
FoamFile
{
    version     2.0;
    format      ascii;
    class       surfaceScalarField;
    location    "0.4";
    object      phi;
}
// * * * * * * * * * * * * * * * * * * * * * * * * * * * * * * * * * * * * * //

dimensions      [0 3 -1 0 0 0 0];

internalField   nonuniform List<scalar> 
370
(
-8.64315e-07
-2.13147e-08
-7.97392e-07
-6.6922e-08
-6.90093e-07
-1.07299e-07
-5.51981e-07
-1.38112e-07
-3.9695e-07
-1.55031e-07
-2.42753e-07
-1.54196e-07
-1.09735e-07
-1.33018e-07
-1.84165e-08
-9.13183e-08
1.56899e-08
-3.41062e-08
1.56898e-08
-2.25396e-06
-7.34518e-08
-2.09311e-06
-2.27777e-07
-1.83631e-06
-3.64094e-07
-1.50608e-06
-4.68341e-07
-1.13411e-06
-5.27002e-07
-7.59542e-07
-5.28767e-07
-4.25412e-07
-4.67148e-07
-1.72696e-07
-3.44033e-07
-3.08028e-08
-1.76e-07
-1.5113e-08
-3.44368e-06
-1.484e-07
-3.21235e-06
-4.59105e-07
-2.84218e-06
-7.3426e-07
-2.36387e-06
-9.46659e-07
-1.82036e-06
-1.07051e-06
-1.26452e-06
-1.08461e-06
-7.54541e-07
-9.77127e-07
-3.46979e-07
-7.51596e-07
-8.7338e-08
-4.35641e-07
-1.02451e-07
-4.52037e-06
-2.40078e-07
-4.23284e-06
-7.46641e-07
-3.76945e-06
-1.19764e-06
-3.16571e-06
-1.5504e-06
-2.47193e-06
-1.76428e-06
-1.75111e-06
-1.80543e-06
-1.07453e-06
-1.6537e-06
-5.15149e-07
-1.31098e-06
-1.39318e-07
-8.11472e-07
-2.41769e-07
-5.53586e-06
-3.42853e-07
-5.20247e-06
-1.08003e-06
-4.65896e-06
-1.74115e-06
-3.94302e-06
-2.26634e-06
-3.10975e-06
-2.59755e-06
-2.23053e-06
-2.68465e-06
-1.38966e-06
-2.49457e-06
-6.78509e-07
-2.02213e-06
-1.8777e-07
-1.30221e-06
-4.2954e-07
-6.51842e-06
-4.5059e-07
-6.14889e-06
-1.44956e-06
-5.53662e-06
-2.35342e-06
-4.71899e-06
-3.08398e-06
-3.75351e-06
-3.56303e-06
-2.71851e-06
-3.71965e-06
-1.71156e-06
-3.50153e-06
-8.44672e-07
-2.88902e-06
-2.36182e-07
-1.9107e-06
-6.65722e-07
-7.47325e-06
-5.56054e-07
-7.0792e-06
-1.84362e-06
-6.41196e-06
-3.02066e-06
-5.50565e-06
-3.99029e-06
-4.41711e-06
-4.65157e-06
-3.22941e-06
-4.90735e-06
-2.05298e-06
-4.67796e-06
-1.02255e-06
-3.91944e-06
-2.88284e-07
-2.64497e-06
-9.54007e-07
-8.38003e-06
-6.50704e-07
-7.97696e-06
-2.24668e-06
-7.27464e-06
-3.72298e-06
-6.30001e-06
-4.96492e-06
-5.10472e-06
-5.84685e-06
-3.77256e-06
-6.23951e-06
-2.42491e-06
-6.02561e-06
-1.22076e-06
-5.12359e-06
-3.4771e-07
-3.51801e-06
-1.30172e-06
-9.18868e-06
-7.24971e-07
-8.79752e-06
-2.63785e-06
-8.0894e-06
-4.4311e-06
-7.07905e-06
-5.97526e-06
-5.80635e-06
-7.11955e-06
-4.34907e-06
-7.69679e-06
-2.83483e-06
-7.53985e-06
-1.4471e-06
-6.51132e-06
-4.18101e-07
-4.54701e-06
-1.71982e-06
-9.81343e-06
-7.69132e-07
-9.4614e-06
-2.98988e-06
-8.78913e-06
-5.10337e-06
-7.79302e-06
-6.97137e-06
-6.49223e-06
-8.42035e-06
-4.94798e-06
-9.24104e-06
-3.28512e-06
-9.20272e-06
-1.70868e-06
-8.08776e-06
-5.03589e-07
-5.7521e-06
-2.22341e-06
-1.01257e-05
-7.74866e-07
-9.84629e-06
-3.26932e-06
-9.26596e-06
-5.6837e-06
-8.35631e-06
-7.88102e-06
-7.10468e-06
-9.67198e-06
-5.54069e-06
-1.0805e-05
-3.7707e-06
-1.09727e-05
-2.01216e-06
-9.84629e-06
-6.09688e-07
-7.15458e-06
-2.83309e-06
-9.94714e-06
-7.37426e-07
-9.77851e-06
-3.43795e-06
-9.36083e-06
-6.10138e-06
-8.63557e-06
-8.60627e-06
-7.54635e-06
-1.07612e-05
-6.07156e-06
-1.22798e-05
-4.27426e-06
-1.277e-05
-2.36364e-06
-1.17569e-05
-7.44775e-07
-8.77345e-06
-3.57787e-06
-9.04425e-06
-6.58081e-07
-9.02566e-06
-3.45654e-06
-8.85252e-06
-6.27451e-06
-8.43477e-06
-9.02403e-06
-7.66287e-06
-1.15331e-05
-6.44197e-06
-1.35007e-05
-4.75624e-06
-1.44557e-05
-2.76674e-06
-1.37464e-05
-9.22432e-07
-1.06178e-05
-4.5003e-06
-7.12841e-06
-5.45951e-07
-7.29359e-06
-3.29136e-06
-7.4485e-06
-6.11961e-06
-7.47777e-06
-8.99475e-06
-7.21785e-06
-1.1793e-05
-6.4827e-06
-1.42359e-05
-5.1334e-06
-1.5805e-05
-3.21497e-06
-1.56648e-05
-1.16438e-06
-1.26683e-05
-5.66468e-06
-3.86492e-06
-4.1782e-07
-4.23246e-06
-2.92382e-06
-4.78192e-06
-5.57014e-06
-5.39094e-06
-8.38574e-06
-5.8584e-06
-1.13256e-05
-5.90651e-06
-1.41878e-05
-5.23278e-06
-1.64788e-05
-3.66625e-06
-1.72314e-05
-1.50007e-06
-1.48345e-05
-7.16476e-06
1.10224e-06
-2.94265e-07
5.41223e-07
-2.3628e-06
-4.22789e-07
-4.60613e-06
-1.69245e-06
-7.11608e-06
-3.07232e-06
-9.9457e-06
-4.23076e-06
-1.30293e-05
-4.69561e-06
-1.60139e-05
-3.96716e-06
-1.79598e-05
-1.94492e-06
-1.68568e-05
-9.10967e-06
8.10401e-06
-1.91613e-07
7.39915e-06
-1.65794e-06
6.08697e-06
-3.29394e-06
4.19928e-06
-5.22839e-06
1.85422e-06
-7.60065e-06
-6.61663e-07
-1.05134e-05
-2.79214e-06
-1.38834e-05
-3.66207e-06
-1.70899e-05
-2.41154e-06
-1.81073e-05
-1.15212e-05
1.73764e-05
-1.1315e-07
1.66306e-05
-9.12094e-07
1.51672e-05
-1.83062e-06
1.29236e-05
-2.98471e-06
9.8618e-06
-4.53888e-06
6.062e-06
-6.71363e-06
1.91236e-06
-9.7338e-06
-1.55961e-06
-1.36179e-05
-2.45833e-06
-1.72086e-05
-1.39795e-05
2.89622e-05
-4.90269e-08
2.83388e-05
-2.88676e-07
2.70819e-05
-5.73716e-07
2.50551e-05
-9.57946e-07
2.20517e-05
-1.53552e-06
1.78155e-05
-2.47742e-06
1.21724e-05
-4.09068e-06
5.47773e-06
-6.92324e-06
-1.29169e-07
-1.16017e-05
-1.41087e-05
4.25576e-05
4.22689e-05
4.16952e-05
4.07373e-05
3.92017e-05
3.67243e-05
3.26336e-05
2.57104e-05
1.41087e-05
)
;

boundaryField
{
    movingWall
    {
        type            calculated;
        value           uniform 0;
    }
    fixedWalls
    {
        type            calculated;
        value           uniform 0;
    }
    frontAndBack
    {
        type            empty;
        value           nonuniform 0();
    }
    procBoundary1to0
    {
        type            processor;
        value           nonuniform List<scalar> 
20
(
8.85628e-07
2.3061e-06
3.51862e-06
4.61205e-06
5.63863e-06
6.62616e-06
7.57872e-06
8.47468e-06
9.26295e-06
9.8576e-06
1.01315e-05
9.9097e-06
8.96491e-06
7.01628e-06
3.73679e-06
-1.2258e-06
-8.20666e-06
-1.74549e-05
-2.90263e-05
-4.26066e-05
)
;
    }
}


// ************************************************************************* //
