/*--------------------------------*- C++ -*----------------------------------*\
| =========                 |                                                 |
| \\      /  F ield         | OpenFOAM: The Open Source CFD Toolbox           |
|  \\    /   O peration     | Version:  2.1.1                                 |
|   \\  /    A nd           | Web:      www.OpenFOAM.org                      |
|    \\/     M anipulation  |                                                 |
\*---------------------------------------------------------------------------*/
FoamFile
{
    version     2.0;
    format      ascii;
    class       volVectorField;
    location    "0.4";
    object      U;
}
// * * * * * * * * * * * * * * * * * * * * * * * * * * * * * * * * * * * * * //

dimensions      [0 1 -1 0 0 0 0];

internalField   nonuniform List<vector> 
200
(
(-0.0177037 -0.000145183 0)
(-0.0168052 -0.000468255 0)
(-0.0150302 -0.000755357 0)
(-0.0125254 -0.000974253 0)
(-0.00952662 -0.0010912 0)
(-0.00635513 -0.00107402 0)
(-0.00340071 -0.000898135 0)
(-0.00108645 -0.000556397 0)
(0.000196436 -9.03649e-05 0)
(0.000267868 0.000262392 0)
(-0.0461331 -0.000813034 0)
(-0.0439628 -0.00254689 0)
(-0.0397025 -0.00407862 0)
(-0.0337039 -0.00524521 0)
(-0.0265144 -0.00588673 0)
(-0.0188552 -0.00586504 0)
(-0.0115671 -0.00509492 0)
(-0.00551347 -0.00358953 0)
(-0.00149313 -0.00155917 0)
(-4.2578e-05 0.000227471 0)
(-0.0704057 -0.00210642 0)
(-0.0672872 -0.00652547 0)
(-0.0611549 -0.0104294 0)
(-0.0524907 -0.0134215 0)
(-0.0420388 -0.015124 0)
(-0.0307752 -0.0152262 0)
(-0.0198299 -0.0135565 0)
(-0.010364 -0.0101793 0)
(-0.00354864 -0.00555124 0)
(-0.00047686 -0.000948852 0)
(-0.0923094 -0.00380804 0)
(-0.088454 -0.0117969 0)
(-0.0808084 -0.0188828 0)
(-0.0699259 -0.0243771 0)
(-0.0566716 -0.0276286 0)
(-0.0421965 -0.0281027 0)
(-0.0278577 -0.0254986 0)
(-0.0150942 -0.0198923 0)
(-0.00550524 -0.0119281 0)
(-0.00086163 -0.00322496 0)
(-0.112904 -0.00578064 0)
(-0.108479 -0.0180553 0)
(-0.0995661 -0.0290124 0)
(-0.0867427 -0.037634 0)
(-0.0709385 -0.0429464 0)
(-0.0534323 -0.0441303 0)
(-0.0357859 -0.04068 0)
(-0.0197358 -0.0325934 0)
(-0.00737084 -0.0205912 0)
(-0.00120371 -0.00649833 0)
(-0.132755 -0.00791669 0)
(-0.127927 -0.0251329 0)
(-0.11797 -0.0406261 0)
(-0.103437 -0.0530207 0)
(-0.0852712 -0.0609678 0)
(-0.0648372 -0.0632816 0)
(-0.0438866 -0.0591433 0)
(-0.0244783 -0.0483454 0)
(-0.00925453 -0.0315582 0)
(-0.00153779 -0.0107288 0)
(-0.151954 -0.0100869 0)
(-0.146918 -0.0328334 0)
(-0.136183 -0.0535008 0)
(-0.120225 -0.0703382 0)
(-0.0999341 -0.0815667 0)
(-0.0767025 -0.0855341 0)
(-0.0524408 -0.080965 0)
(-0.0295452 -0.067278 0)
(-0.0112837 -0.0449402 0)
(-0.0019001 -0.0159518 0)
(-0.170066 -0.0121339 0)
(-0.165072 -0.0408939 0)
(-0.15393 -0.0673153 0)
(-0.13697 -0.0892743 0)
(-0.114943 -0.104513 0)
(-0.0891762 -0.110798 0)
(-0.0616709 -0.106214 0)
(-0.0351485 -0.0895803 0)
(-0.0135859 -0.0609501 0)
(-0.00232634 -0.0222778 0)
(-0.186059 -0.0138749 0)
(-0.181421 -0.048957 0)
(-0.170394 -0.081594 0)
(-0.153081 -0.109324 0)
(-0.129971 -0.129382 0)
(-0.102186 -0.138829 0)
(-0.0716894 -0.134888 0)
(-0.0414669 -0.11547 0)
(-0.016288 -0.0798957 0)
(-0.00285469 -0.0298898 0)
(-0.198187 -0.0151126 0)
(-0.194283 -0.0565454 0)
(-0.184081 -0.0956422 0)
(-0.167366 -0.129689 0)
(-0.144215 -0.155424 0)
(-0.115338 -0.169098 0)
(-0.0824456 -0.166803 0)
(-0.048636 -0.145124 0)
(-0.0195287 -0.10216 0)
(-0.00353356 -0.0390473 0)
(-0.203857 -0.0156584 0)
(-0.201109 -0.0630501 0)
(-0.192648 -0.108491 0)
(-0.177856 -0.149171 0)
(-0.156223 -0.181415 0)
(-0.127779 -0.200607 0)
(-0.093644 -0.201425 0)
(-0.0567329 -0.178574 0)
(-0.0234798 -0.128173 0)
(-0.00443553 -0.0501044 0)
(-0.199501 -0.0153698 0)
(-0.198335 -0.0677423 0)
(-0.192717 -0.118866 0)
(-0.181574 -0.166078 0)
(-0.163645 -0.205488 0)
(-0.137966 -0.231661 0)
(-0.104596 -0.237625 0)
(-0.0657335 -0.215525 0)
(-0.0283777 -0.158367 0)
(-0.00568207 -0.0635521 0)
(-0.180483 -0.0141972 0)
(-0.181265 -0.0698201 0)
(-0.179695 -0.12521 0)
(-0.17427 -0.17818 0)
(-0.162895 -0.224973 0)
(-0.143316 -0.259588 0)
(-0.113937 -0.273329 0)
(-0.075393 -0.255066 0)
(-0.0345563 -0.19309 0)
(-0.00748628 -0.0801041 0)
(-0.141106 -0.0122312 0)
(-0.144054 -0.0685057 0)
(-0.147668 -0.125793 0)
(-0.150169 -0.182769 0)
(-0.14872 -0.236324 0)
(-0.139643 -0.280446 0)
(-0.119094 -0.305025 0)
(-0.0849359 -0.295158 0)
(-0.0424404 -0.232377 0)
(-0.010216 -0.100837 0)
(-0.0747963 -0.00972658 0)
(-0.0798887 -0.0632094 0)
(-0.0894612 -0.118989 0)
(-0.101787 -0.176956 0)
(-0.113685 -0.235284 0)
(-0.120304 -0.288881 0)
(-0.115263 -0.327195 0)
(-0.0922662 -0.331794 0)
(-0.0523156 -0.275403 0)
(-0.0144303 -0.127347 0)
(0.0254074 -0.007071 0)
(0.0185092 -0.0537566 0)
(0.0029813 -0.103751 0)
(-0.0199952 -0.158319 0)
(-0.0476845 -0.217501 0)
(-0.0749838 -0.27836 0)
(-0.0935461 -0.331791 0)
(-0.0920634 -0.357682 0)
(-0.0632804 -0.319294 0)
(-0.0206336 -0.161974 0)
(0.165952 -0.00466916 0)
(0.157937 -0.0406265 0)
(0.137733 -0.0802454 0)
(0.105441 -0.125917 0)
(0.0622631 -0.179726 0)
(0.0118064 -0.24202 0)
(-0.0378295 -0.307877 0)
(-0.0716792 -0.360143 0)
(-0.0700554 -0.356608 0)
(-0.0279123 -0.208375 0)
(0.351387 -0.00279258 0)
(0.343302 -0.0252635 0)
(0.321468 -0.0507867 0)
(0.284643 -0.0820474 0)
(0.231572 -0.122445 0)
(0.162181 -0.175669 0)
(0.0799007 -0.243431 0)
(-0.00318981 -0.319136 0)
(-0.0546696 -0.368612 0)
(-0.0284594 -0.267618 0)
(0.58239 -0.00149405 0)
(0.575694 -0.0108444 0)
(0.557307 -0.0218463 0)
(0.525134 -0.0363345 0)
(0.475777 -0.0572593 0)
(0.404537 -0.0893839 0)
(0.305176 -0.139741 0)
(0.173417 -0.216386 0)
(0.041172 -0.311655 0)
(0.0184302 -0.299995 0)
(0.852671 -0.000499776 0)
(0.849381 -0.00221489 0)
(0.840998 -0.0043383 0)
(0.82614 -0.00742393 0)
(0.802078 -0.0125322 0)
(0.763621 -0.0217728 0)
(0.699108 -0.0392829 0)
(0.583952 -0.0726601 0)
(0.415827 -0.127868 0)
(0.308819 -0.149468 0)
)
;

boundaryField
{
    movingWall
    {
        type            fixedValue;
        value           uniform (1 0 0);
    }
    fixedWalls
    {
        type            fixedValue;
        value           uniform (0 0 0);
    }
    frontAndBack
    {
        type            empty;
    }
    procBoundary1to0
    {
        type            processor;
        value           nonuniform List<vector> 
20
(
(-0.0176598 0.000184479 0)
(-0.0460507 0.000966739 0)
(-0.0702878 0.00243872 0)
(-0.0921249 0.00440505 0)
(-0.112595 0.0068138 0)
(-0.132243 0.009693 0)
(-0.151146 0.0130848 0)
(-0.16887 0.0170198 0)
(-0.184408 0.0214868 0)
(-0.196069 0.0263892 0)
(-0.201361 0.0314938 0)
(-0.196863 0.0363757 0)
(-0.178117 0.040378 0)
(-0.139591 0.0426181 0)
(-0.0747786 0.0420931 0)
(0.0234489 0.0379448 0)
(0.162058 0.0298894 0)
(0.346478 0.0187773 0)
(0.578315 0.00748493 0)
(0.851376 0.00114983 0)
)
;
    }
}


// ************************************************************************* //
