/*--------------------------------*- C++ -*----------------------------------*\
| =========                 |                                                 |
| \\      /  F ield         | OpenFOAM: The Open Source CFD Toolbox           |
|  \\    /   O peration     | Version:  2.1.1                                 |
|   \\  /    A nd           | Web:      www.OpenFOAM.org                      |
|    \\/     M anipulation  |                                                 |
\*---------------------------------------------------------------------------*/
FoamFile
{
    version     2.0;
    format      ascii;
    class       volScalarField;
    location    "0.1";
    object      p;
}
// * * * * * * * * * * * * * * * * * * * * * * * * * * * * * * * * * * * * * //

dimensions      [0 2 -2 0 0 0 0];

internalField   nonuniform List<scalar> 
200
(
0.0432227
0.0586592
0.072304
0.0829658
0.0896943
0.0919495
0.0898004
0.0841431
0.0769052
0.0711777
0.0417619
0.0543077
0.0654408
0.074226
0.0799334
0.0821649
0.080997
0.0770674
0.0713852
0.0655144
0.0408056
0.0518525
0.0617111
0.0695591
0.0747357
0.0768427
0.0758697
0.0721971
0.0660158
0.0578575
0.0400643
0.0506891
0.0602432
0.0679168
0.0730152
0.0750509
0.0738783
0.0696526
0.0619102
0.0505536
0.0392018
0.050163
0.0601268
0.0682389
0.0737132
0.0759214
0.0745546
0.0695603
0.059916
0.0450948
0.0379908
0.0500648
0.0611989
0.0704505
0.0768926
0.0797072
0.0783864
0.0726628
0.0609903
0.0425173
0.0361637
0.0501865
0.0633434
0.0745694
0.0827497
0.0868206
0.086019
0.0798179
0.0661051
0.043726
0.0333984
0.050268
0.0664033
0.0805953
0.091499
0.0977378
0.0982096
0.0920316
0.0763876
0.0497552
0.0293478
0.0500273
0.0702111
0.0885438
0.103416
0.113061
0.115922
0.110597
0.093307
0.0619959
0.0236934
0.0491937
0.0746011
0.0984423
0.11883
0.133532
0.140382
0.137217
0.118873
0.0824314
0.0162422
0.0475731
0.0794416
0.110333
0.138111
0.160026
0.17313
0.174158
0.155894
0.113956
0.00707318
0.045157
0.0846983
0.124289
0.161657
0.193542
0.216065
0.224423
0.20835
0.160888
-0.00328773
0.0422518
0.0905099
0.140431
0.189844
0.235135
0.271445
0.291961
0.281958
0.229892
-0.0137276
0.0395665
0.0972088
0.158857
0.222868
0.285694
0.341717
0.381809
0.385039
0.331814
-0.0225616
0.0381316
0.10516
0.179364
0.260293
0.345307
0.428864
0.499858
0.529711
0.485249
-0.0278628
0.0389333
0.114347
0.200927
0.30033
0.41228
0.533192
0.651851
0.732727
0.72216
-0.0282569
0.0422037
0.123738
0.221112
0.339217
0.482339
0.652085
0.841346
1.01517
1.09722
-0.0242108
0.0459055
0.129376
0.233443
0.367378
0.542842
0.771352
1.05929
1.40316
1.72987
-0.0189602
0.0432195
0.119676
0.219211
0.355161
0.548226
0.826519
1.2366
1.91159
2.92399
-0.0163525
0.0281377
0.0851725
0.162305
0.272937
0.442527
0.718519
1.22587
2.41106
4.84844
)
;

boundaryField
{
    movingWall
    {
        type            zeroGradient;
    }
    fixedWalls
    {
        type            zeroGradient;
    }
    frontAndBack
    {
        type            empty;
    }
    procBoundary1to0
    {
        type            processor;
        value           nonuniform List<scalar> 
20
(
0.0272518
0.0287948
0.0294277
0.0291845
0.028067
0.0258454
0.0222117
0.0168065
0.00924427
-0.000815159
-0.013544
-0.0287699
-0.0457633
-0.0630465
-0.078337
-0.0888172
-0.0919958
-0.0868446
-0.0733157
-0.0533237
)
;
    }
}


// ************************************************************************* //
