/*--------------------------------*- C++ -*----------------------------------*\
| =========                 |                                                 |
| \\      /  F ield         | OpenFOAM: The Open Source CFD Toolbox           |
|  \\    /   O peration     | Version:  2.1.1                                 |
|   \\  /    A nd           | Web:      www.OpenFOAM.org                      |
|    \\/     M anipulation  |                                                 |
\*---------------------------------------------------------------------------*/
FoamFile
{
    version     2.0;
    format      ascii;
    class       surfaceScalarField;
    location    "0.1";
    object      phi;
}
// * * * * * * * * * * * * * * * * * * * * * * * * * * * * * * * * * * * * * //

dimensions      [0 3 -1 0 0 0 0];

internalField   nonuniform List<scalar> 
370
(
-8.50741e-07
-2.08559e-08
-7.85041e-07
-6.56994e-08
-6.7961e-07
-1.05432e-07
-5.43815e-07
-1.35794e-07
-3.91288e-07
-1.52527e-07
-2.39473e-07
-1.51816e-07
-1.08395e-07
-1.31078e-07
-1.83068e-08
-9.00877e-08
1.54156e-08
-3.37223e-08
1.5416e-08
-2.2173e-06
-7.18161e-08
-2.05949e-06
-2.23504e-07
-1.80732e-06
-3.57603e-07
-1.48281e-06
-4.60303e-07
-1.11704e-06
-5.18297e-07
-7.48461e-07
-5.20398e-07
-4.19433e-07
-4.60107e-07
-1.70384e-07
-3.39136e-07
-3.04344e-08
-1.73671e-07
-1.50183e-08
-3.38851e-06
-1.45049e-07
-3.16155e-06
-4.50463e-07
-2.79799e-06
-7.21166e-07
-2.32785e-06
-9.30444e-07
-1.79327e-06
-1.05288e-06
-1.24618e-06
-1.06749e-06
-7.43887e-07
-9.62395e-07
-3.42208e-07
-7.40814e-07
-8.61687e-08
-4.2971e-07
-1.01187e-07
-4.45211e-06
-2.34673e-07
-4.16977e-06
-7.32807e-07
-3.71423e-06
-1.1767e-06
-3.12024e-06
-1.52443e-06
-2.43719e-06
-1.73593e-06
-1.72705e-06
-1.77763e-06
-1.06008e-06
-1.62936e-06
-5.08341e-07
-1.29256e-06
-1.37489e-07
-8.00561e-07
-2.38677e-07
-5.46057e-06
-3.35277e-07
-5.13269e-06
-1.06068e-06
-4.59756e-06
-1.71184e-06
-3.89209e-06
-2.2299e-06
-3.07044e-06
-2.55757e-06
-2.20293e-06
-2.64514e-06
-1.37279e-06
-2.45951e-06
-6.70375e-07
-1.99497e-06
-1.85516e-07
-1.28542e-06
-4.24193e-07
-6.44255e-06
-4.40961e-07
-6.07837e-06
-1.42487e-06
-5.47427e-06
-2.31593e-06
-4.66696e-06
-3.03722e-06
-3.71304e-06
-3.51149e-06
-2.68983e-06
-3.66835e-06
-1.69384e-06
-3.4555e-06
-8.3603e-07
-2.85278e-06
-2.33757e-07
-1.88769e-06
-6.5795e-07
-7.40329e-06
-5.44731e-07
-7.01391e-06
-1.81424e-06
-6.35396e-06
-2.97588e-06
-5.45695e-06
-3.93423e-06
-4.37897e-06
-4.58948e-06
-3.20217e-06
-4.84515e-06
-2.03601e-06
-4.62166e-06
-1.01421e-06
-3.87457e-06
-2.85929e-07
-2.61598e-06
-9.43879e-07
-8.32206e-06
-6.38264e-07
-7.92256e-06
-2.21375e-06
-7.22598e-06
-3.67246e-06
-6.25884e-06
-4.90137e-06
-5.0722e-06
-5.77612e-06
-3.74913e-06
-6.16822e-06
-2.41018e-06
-5.96061e-06
-1.21347e-06
-5.07129e-06
-3.45638e-07
-3.4838e-06
-1.28952e-06
-9.14796e-06
-7.12149e-07
-8.75889e-06
-2.60282e-06
-8.05443e-06
-4.37691e-06
-7.04907e-06
-5.90673e-06
-5.78233e-06
-7.04286e-06
-4.33151e-06
-7.61904e-06
-2.82364e-06
-7.46848e-06
-1.44149e-06
-6.45344e-06
-4.16486e-07
-4.50881e-06
-1.706e-06
-9.79393e-06
-7.56737e-07
-9.44228e-06
-2.95447e-06
-8.77121e-06
-5.04798e-06
-7.77709e-06
-6.90085e-06
-6.47898e-06
-8.34098e-06
-4.93793e-06
-9.16009e-06
-3.27848e-06
-9.12792e-06
-1.70524e-06
-8.02668e-06
-5.02566e-07
-5.71148e-06
-2.20857e-06
-1.01297e-05
-7.6366e-07
-9.8489e-06
-3.23527e-06
-9.26717e-06
-5.62971e-06
-8.35626e-06
-7.81175e-06
-7.10369e-06
-9.59354e-06
-5.53924e-06
-1.07245e-05
-3.76931e-06
-1.08979e-05
-2.01124e-06
-9.78476e-06
-6.0935e-07
-7.11337e-06
-2.81792e-06
-9.97485e-06
-7.28005e-07
-9.80326e-06
-3.40686e-06
-9.38169e-06
-6.05128e-06
-8.65197e-06
-8.54147e-06
-7.55818e-06
-1.06873e-05
-6.07919e-06
-1.22035e-05
-4.27844e-06
-1.26986e-05
-2.3654e-06
-1.16978e-05
-7.45171e-07
-8.7336e-06
-3.56309e-06
-9.09375e-06
-6.50766e-07
-9.07095e-06
-3.42966e-06
-8.89182e-06
-6.23041e-06
-8.46679e-06
-8.96649e-06
-7.68702e-06
-1.14671e-05
-6.45842e-06
-1.34321e-05
-4.7659e-06
-1.43911e-05
-2.77116e-06
-1.36925e-05
-9.23566e-07
-1.05812e-05
-4.48666e-06
-7.19558e-06
-5.40733e-07
-7.35579e-06
-3.26945e-06
-7.50319e-06
-6.08301e-06
-7.52306e-06
-8.94663e-06
-7.25264e-06
-1.17375e-05
-6.50689e-06
-1.41779e-05
-5.14797e-06
-1.57501e-05
-3.22182e-06
-1.56187e-05
-1.16621e-06
-1.26368e-05
-5.65286e-06
-3.94364e-06
-4.1439e-07
-4.30597e-06
-2.90712e-06
-4.84719e-06
-5.54179e-06
-5.44556e-06
-8.34826e-06
-5.90089e-06
-1.12822e-05
-5.93649e-06
-1.41423e-05
-5.25112e-06
-1.64354e-05
-3.67504e-06
-1.71948e-05
-1.50247e-06
-1.48094e-05
-7.15533e-06
1.0196e-06
-2.92136e-07
4.63531e-07
-2.35105e-06
-4.92248e-07
-4.58601e-06
-1.75105e-06
-7.08946e-06
-3.11834e-06
-9.9149e-06
-4.26361e-06
-1.2997e-05
-4.71598e-06
-1.59831e-05
-3.97708e-06
-1.79337e-05
-1.94769e-06
-1.68388e-05
-9.10302e-06
8.02593e-06
-1.90307e-07
7.32544e-06
-1.65056e-06
6.02078e-06
-3.28135e-06
4.14315e-06
-5.21183e-06
1.80986e-06
-7.58161e-06
-6.93602e-07
-1.04936e-05
-2.81216e-06
-1.38645e-05
-3.67196e-06
-1.70739e-05
-2.41435e-06
-1.80964e-05
-1.15174e-05
1.73115e-05
-1.12364e-07
1.65692e-05
-9.0828e-07
1.51121e-05
-1.82428e-06
1.28768e-05
-2.97652e-06
9.82478e-06
-4.52959e-06
6.03528e-06
-6.70405e-06
1.89555e-06
-9.72477e-06
-1.56796e-06
-1.36104e-05
-2.46073e-06
-1.72036e-05
-1.39781e-05
2.89183e-05
-4.8671e-08
2.82975e-05
-2.87456e-07
2.7045e-05
-5.7181e-07
2.5024e-05
-9.55569e-07
2.20273e-05
-1.5329e-06
1.77981e-05
-2.47479e-06
1.21616e-05
-4.08826e-06
5.47251e-06
-6.92129e-06
-1.30561e-07
-1.16005e-05
-1.41087e-05
4.25413e-05
4.22538e-05
4.1682e-05
4.07264e-05
3.91935e-05
3.67188e-05
3.26305e-05
2.57092e-05
1.41087e-05
)
;

boundaryField
{
    movingWall
    {
        type            calculated;
        value           uniform 0;
    }
    fixedWalls
    {
        type            calculated;
        value           uniform 0;
    }
    frontAndBack
    {
        type            empty;
        value           nonuniform 0();
    }
    procBoundary1to0
    {
        type            processor;
        value           nonuniform List<scalar> 
20
(
8.71596e-07
2.26826e-06
3.46175e-06
4.54174e-06
5.56117e-06
6.54824e-06
7.50706e-06
8.41559e-06
9.22185e-06
9.83852e-06
1.01366e-05
9.93919e-06
9.01651e-06
7.08554e-06
3.81729e-06
-1.14185e-06
-8.12776e-06
-1.73894e-05
-2.8982e-05
-4.25899e-05
)
;
    }
}


// ************************************************************************* //
