/*--------------------------------*- C++ -*----------------------------------*\
| =========                 |                                                 |
| \\      /  F ield         | OpenFOAM: The Open Source CFD Toolbox           |
|  \\    /   O peration     | Version:  2.1.1                                 |
|   \\  /    A nd           | Web:      www.OpenFOAM.org                      |
|    \\/     M anipulation  |                                                 |
\*---------------------------------------------------------------------------*/
FoamFile
{
    version     2.0;
    format      ascii;
    class       volVectorField;
    location    "0.1";
    object      U;
}
// * * * * * * * * * * * * * * * * * * * * * * * * * * * * * * * * * * * * * //

dimensions      [0 1 -1 0 0 0 0];

internalField   nonuniform List<vector> 
200
(
(-0.0174241 -0.000142358 0)
(-0.0165427 -0.000460351 0)
(-0.0147994 -0.000743128 0)
(-0.0123375 -0.000958991 0)
(-0.00938815 -0.00107474 0)
(-0.00626683 -0.00105862 0)
(-0.00335683 -0.000886191 0)
(-0.00107508 -0.00055001 0)
(0.000191422 -9.04883e-05 0)
(0.000263597 0.000258158 0)
(-0.0453786 -0.000795424 0)
(-0.0432515 -0.00249998 0)
(-0.0390699 -0.00400701 0)
(-0.0331775 -0.00515641 0)
(-0.0261102 -0.00579078 0)
(-0.0185763 -0.00577354 0)
(-0.011402 -0.00501958 0)
(-0.00543832 -0.00354001 0)
(-0.00147457 -0.00154013 0)
(-4.29105e-05 0.000222417 0)
(-0.0692716 -0.00205915 0)
(-0.0662153 -0.00640243 0)
(-0.0601955 -0.0102427 0)
(-0.0516829 -0.0131903 0)
(-0.0414062 -0.0148733 0)
(-0.0303238 -0.0149842 0)
(-0.019547 -0.013351 0)
(-0.0102204 -0.010033 0)
(-0.00350114 -0.00547617 0)
(-0.000471126 -0.000938255 0)
(-0.0909074 -0.00372181 0)
(-0.0871261 -0.0115752 0)
(-0.079614 -0.0185471 0)
(-0.0689119 -0.0239613 0)
(-0.0558673 -0.0271758 0)
(-0.0416114 -0.0276612 0)
(-0.0274803 -0.0251156 0)
(-0.0148941 -0.0196075 0)
(-0.00543348 -0.0117651 0)
(-0.00085084 -0.00318366 0)
(-0.111359 -0.00565091 0)
(-0.107012 -0.017724 0)
(-0.098242 -0.0285108 0)
(-0.0856113 -0.0370114 0)
(-0.070033 -0.0422652 0)
(-0.0527653 -0.04346 0)
(-0.0353486 -0.0400893 0)
(-0.0194989 -0.0321412 0)
(-0.0072832 -0.0203171 0)
(-0.00118969 -0.00641518 0)
(-0.1312 -0.00774342 0)
(-0.126447 -0.0246903 0)
(-0.116628 -0.0399554 0)
(-0.102285 -0.0521859 0)
(-0.0843426 -0.06005 0)
(-0.0641472 -0.0623715 0)
(-0.0434294 -0.0583313 0)
(-0.0242275 -0.0477111 0)
(-0.00916048 -0.0311605 0)
(-0.0015224 -0.0105977 0)
(-0.150522 -0.00987489 0)
(-0.145551 -0.0322881 0)
(-0.134939 -0.0526719 0)
(-0.11915 -0.0693029 0)
(-0.0990618 -0.0804231 0)
(-0.0760493 -0.0843923 0)
(-0.0520045 -0.0799361 0)
(-0.0293039 -0.0664628 0)
(-0.0111925 -0.0444177 0)
(-0.00188502 -0.015772 0)
(-0.168883 -0.0118927 0)
(-0.163937 -0.040264 0)
(-0.15289 -0.0663529 0)
(-0.136065 -0.0880672 0)
(-0.114202 -0.103173 0)
(-0.0886165 -0.109451 0)
(-0.0612935 -0.104991 0)
(-0.0349379 -0.0886009 0)
(-0.0135056 -0.0603132 0)
(-0.00231295 -0.0220527 0)
(-0.185232 -0.013618 0)
(-0.18062 -0.0482689 0)
(-0.169651 -0.0805351 0)
(-0.152426 -0.107989 0)
(-0.129427 -0.127892 0)
(-0.101769 -0.137324 0)
(-0.071404 -0.13351 0)
(-0.0413054 -0.114357 0)
(-0.0162256 -0.0791646 0)
(-0.00284408 -0.0296271 0)
(-0.197797 -0.0148559 0)
(-0.193892 -0.0558318 0)
(-0.183707 -0.0945332 0)
(-0.167024 -0.128282 0)
(-0.14392 -0.153845 0)
(-0.115103 -0.167493 0)
(-0.0822786 -0.165325 0)
(-0.048538 -0.143922 0)
(-0.0194894 -0.101363 0)
(-0.00352654 -0.0387577 0)
(-0.20395 -0.0154185 0)
(-0.201175 -0.0623466 0)
(-0.192686 -0.107384 0)
(-0.177867 -0.147756 0)
(-0.156211 -0.179818 0)
(-0.127752 -0.198973 0)
(-0.0936132 -0.199911 0)
(-0.0567084 -0.177333 0)
(-0.0234674 -0.127345 0)
(-0.00443268 -0.0498009 0)
(-0.20008 -0.0151608 0)
(-0.198865 -0.0670834 0)
(-0.193177 -0.117813 0)
(-0.181948 -0.164722 0)
(-0.163927 -0.203947 0)
(-0.138158 -0.230074 0)
(-0.104709 -0.236145 0)
(-0.0657872 -0.214304 0)
(-0.028394 -0.157547 0)
(-0.00568373 -0.0632491 0)
(-0.181505 -0.0140289 0)
(-0.182223 -0.0692353 0)
(-0.180549 -0.124259 0)
(-0.174988 -0.176943 0)
(-0.163458 -0.223559 0)
(-0.143719 -0.258123 0)
(-0.114192 -0.271952 0)
(-0.0755242 -0.253923 0)
(-0.0346014 -0.192317 0)
(-0.00749258 -0.0798165 0)
(-0.142485 -0.0121069 0)
(-0.145362 -0.0680157 0)
(-0.148849 -0.124981 0)
(-0.151177 -0.181704 0)
(-0.149524 -0.235098 0)
(-0.140231 -0.279169 0)
(-0.119474 -0.303816 0)
(-0.0851372 -0.294147 0)
(-0.0425123 -0.231688 0)
(-0.0102268 -0.100579 0)
(-0.0764062 -0.00964275 0)
(-0.0814279 -0.0628241 0)
(-0.0908635 -0.118339 0)
(-0.102996 -0.176097 0)
(-0.114661 -0.234291 0)
(-0.121028 -0.287841 0)
(-0.115738 -0.326205 0)
(-0.0925225 -0.330959 0)
(-0.0524093 -0.274831 0)
(-0.0144452 -0.127132 0)
(0.0237228 -0.00701871 0)
(0.0168878 -0.0534752 0)
(0.00149415 -0.103269 0)
(-0.0212875 -0.157681 0)
(-0.0487372 -0.216762 0)
(-0.0757727 -0.277584 0)
(-0.0940709 -0.331048 0)
(-0.0923507 -0.357053 0)
(-0.0633876 -0.318861 0)
(-0.0206513 -0.161812 0)
(0.164364 -0.00463759 0)
(0.156401 -0.0404396 0)
(0.136318 -0.0799243 0)
(0.104207 -0.125493 0)
(0.0612515 -0.179236 0)
(0.0110423 -0.241507 0)
(-0.038343 -0.307387 0)
(-0.0719637 -0.359727 0)
(-0.0701633 -0.356323 0)
(-0.0279306 -0.208271 0)
(0.350067 -0.00277316 0)
(0.342024 -0.0251569 0)
(0.320291 -0.0506063 0)
(0.283615 -0.081812 0)
(0.230729 -0.122177 0)
(0.161543 -0.17539 0)
(0.0794698 -0.243167 0)
(-0.00342969 -0.318914 0)
(-0.0547605 -0.368463 0)
(-0.0284746 -0.267568 0)
(0.581496 -0.00148254 0)
(0.574831 -0.0107994 0)
(0.556517 -0.021774 0)
(0.524449 -0.0362429 0)
(0.475219 -0.0571571 0)
(0.404118 -0.08928 0)
(0.304896 -0.139644 0)
(0.173264 -0.216307 0)
(0.0411175 -0.311606 0)
(0.0184228 -0.299985 0)
(0.852337 -0.00049568 0)
(0.849063 -0.00220515 0)
(0.840712 -0.00432432 0)
(0.825898 -0.00740729 0)
(0.801887 -0.0125144 0)
(0.763483 -0.0217554 0)
(0.699022 -0.0392672 0)
(0.583912 -0.0726479 0)
(0.415819 -0.127862 0)
(0.308822 -0.149469 0)
)
;

boundaryField
{
    movingWall
    {
        type            fixedValue;
        value           uniform (1 0 0);
    }
    fixedWalls
    {
        type            fixedValue;
        value           uniform (0 0 0);
    }
    frontAndBack
    {
        type            empty;
    }
    procBoundary1to0
    {
        type            processor;
        value           nonuniform List<vector> 
20
(
(-0.0173791 0.000181999 0)
(-0.0452924 0.000953569 0)
(-0.0691474 0.00240607 0)
(-0.0907148 0.0043482 0)
(-0.111042 0.0067304 0)
(-0.130682 0.00958177 0)
(-0.149711 0.0129452 0)
(-0.16769 0.0168519 0)
(-0.183591 0.0212912 0)
(-0.195695 0.0261679 0)
(-0.201475 0.0312506 0)
(-0.197464 0.0361174 0)
(-0.179159 0.0401149 0)
(-0.140982 0.0423642 0)
(-0.0763886 0.0418649 0)
(0.0217762 0.0377586 0)
(0.16049 0.0297576 0)
(0.34518 0.0187035 0)
(0.577436 0.0074596 0)
(0.851044 0.00114732 0)
)
;
    }
}


// ************************************************************************* //
