/*--------------------------------*- C++ -*----------------------------------*\
| =========                 |                                                 |
| \\      /  F ield         | OpenFOAM: The Open Source CFD Toolbox           |
|  \\    /   O peration     | Version:  2.1.1                                 |
|   \\  /    A nd           | Web:      www.OpenFOAM.org                      |
|    \\/     M anipulation  |                                                 |
\*---------------------------------------------------------------------------*/
FoamFile
{
    version     2.0;
    format      ascii;
    class       volScalarField;
    location    "0.4";
    object      p;
}
// * * * * * * * * * * * * * * * * * * * * * * * * * * * * * * * * * * * * * //

dimensions      [0 2 -2 0 0 0 0];

internalField   nonuniform List<scalar> 
200
(
6.26593e-06
-0.00581903
-0.0129561
-0.0184081
-0.0204255
-0.018232
-0.0117677
-0.00147785
0.0118406
0.0271445
0.00578643
-0.000212216
-0.00579775
-0.0095362
-0.0105926
-0.0084265
-0.00296392
0.00548009
0.0163068
0.0287078
0.0133407
0.00503937
-0.00098943
-0.00441706
-0.00526681
-0.00325789
0.00160832
0.00903377
0.0185067
0.0293469
0.0201446
0.00870137
0.00123147
-0.00266272
-0.00371619
-0.00187937
0.00273728
0.00979093
0.0187855
0.0290936
0.024507
0.00977839
0.000595239
-0.00398125
-0.00529639
-0.0035014
0.00118081
0.0083411
0.0174674
0.0279481
0.0251829
0.00715535
-0.00379655
-0.00905155
-0.0105063
-0.00849395
-0.00335057
0.0044362
0.014319
0.0256782
0.0210987
-0.000256879
-0.0129289
-0.0187036
-0.0200238
-0.0174077
-0.0113119
-0.00231266
0.00899635
0.0219753
0.0111483
-0.0136125
-0.0278693
-0.0338483
-0.0345974
-0.0308512
-0.0232062
-0.0123379
0.00111097
0.016483
-0.00596127
-0.0342605
-0.049864
-0.0555425
-0.0550839
-0.0495081
-0.0395868
-0.0261059
-0.00975084
0.00882229
-0.0318508
-0.0638698
-0.0804106
-0.0850008
-0.0824137
-0.0740718
-0.0609741
-0.0440292
-0.0239451
-0.001337
-0.0686605
-0.104597
-0.121338
-0.123583
-0.117509
-0.10512
-0.0877114
-0.0663182
-0.0416305
-0.0141543
-0.119395
-0.15935
-0.174908
-0.17275
-0.161141
-0.142922
-0.119752
-0.0927698
-0.0625706
-0.0294436
-0.18862
-0.232234
-0.243931
-0.233941
-0.213687
-0.187147
-0.156365
-0.122494
-0.0858904
-0.0464636
-0.283966
-0.329296
-0.331824
-0.308272
-0.274701
-0.236432
-0.195757
-0.153603
-0.109832
-0.0637299
-0.419309
-0.459662
-0.442342
-0.395784
-0.342121
-0.287731
-0.234608
-0.182923
-0.1316
-0.0789608
-0.620522
-0.636735
-0.578668
-0.494185
-0.411232
-0.33565
-0.267772
-0.20597
-0.147525
-0.0893483
-0.935914
-0.878506
-0.741733
-0.59794
-0.474384
-0.37265
-0.288859
-0.217755
-0.15394
-0.0924182
-1.47641
-1.20662
-0.920494
-0.691379
-0.517297
-0.387535
-0.290052
-0.213329
-0.148109
-0.0871607
-2.53964
-1.63054
-1.04443
-0.710951
-0.495742
-0.352085
-0.254522
-0.183574
-0.126152
-0.0735384
-4.36666
-2.04463
-0.973534
-0.563173
-0.357839
-0.240139
-0.170111
-0.123774
-0.0874634
-0.053465
)
;

boundaryField
{
    movingWall
    {
        type            zeroGradient;
    }
    fixedWalls
    {
        type            zeroGradient;
    }
    frontAndBack
    {
        type            empty;
    }
    procBoundary0to1
    {
        type            processor;
        value           nonuniform List<scalar> 
20
(
0.0432588
0.0417636
0.0407782
0.0400044
0.0390975
0.0378267
0.0359229
0.0330662
0.0289147
0.0231589
0.0156178
0.00638309
-0.00400819
-0.0144371
-0.0232208
-0.0284426
-0.0287454
-0.0246168
-0.019312
-0.0166864
)
;
    }
}


// ************************************************************************* //
