/*--------------------------------*- C++ -*----------------------------------*\
| =========                 |                                                 |
| \\      /  F ield         | OpenFOAM: The Open Source CFD Toolbox           |
|  \\    /   O peration     | Version:  2.1.1                                 |
|   \\  /    A nd           | Web:      www.OpenFOAM.org                      |
|    \\/     M anipulation  |                                                 |
\*---------------------------------------------------------------------------*/
FoamFile
{
    version     2.0;
    format      ascii;
    class       surfaceScalarField;
    location    "0.4";
    object      phi;
}
// * * * * * * * * * * * * * * * * * * * * * * * * * * * * * * * * * * * * * //

dimensions      [0 3 -1 0 0 0 0];

internalField   nonuniform List<scalar> 
370
(
1.42237e-08
-1.42764e-08
-2.22153e-08
3.64388e-08
-1.14275e-07
9.2059e-08
-2.455e-07
1.31226e-07
-3.96107e-07
1.50607e-07
-5.47376e-07
1.51269e-07
-6.83201e-07
1.35824e-07
-7.90668e-07
1.07467e-07
-8.60203e-07
6.95338e-08
2.54261e-08
-3.42208e-08
1.99444e-08
-1.80385e-07
1.82603e-07
-4.34007e-07
3.45681e-07
-7.64461e-07
4.61681e-07
-1.13225e-06
5.18396e-07
-1.49729e-06
5.16312e-07
-1.8234e-06
4.61925e-07
-2.0806e-06
3.64669e-07
-2.24634e-06
2.35274e-07
8.51862e-08
-9.22331e-08
1.12178e-07
-3.57012e-07
4.47381e-07
-7.64587e-07
7.53256e-07
-1.26853e-06
9.65625e-07
-1.81476e-06
1.06462e-06
-2.34912e-06
1.05067e-06
-2.82252e-06
9.35327e-07
-3.19404e-06
7.36189e-07
-3.43272e-06
4.73949e-07
1.71094e-07
-1.45216e-07
2.57393e-07
-5.25478e-07
8.27643e-07
-1.08166e-06
1.30944e-06
-1.74756e-06
1.63152e-06
-2.4544e-06
1.77146e-06
-3.13646e-06
1.73274e-06
-3.73539e-06
1.53426e-06
-4.20301e-06
1.20382e-06
-4.50304e-06
7.73971e-07
2.80108e-07
-1.93614e-07
4.51008e-07
-6.85016e-07
1.31904e-06
-1.38565e-06
2.01008e-06
-2.20729e-06
2.45316e-06
-3.06553e-06
2.6297e-06
-3.88386e-06
2.55106e-06
-4.59659e-06
2.247e-06
-5.15068e-06
1.75791e-06
-5.50656e-06
1.12984e-06
4.12188e-07
-2.39945e-07
6.90953e-07
-8.40364e-07
1.91946e-06
-1.68332e-06
2.85303e-06
-2.6571e-06
3.42694e-06
-3.66089e-06
3.6335e-06
-4.60784e-06
3.49801e-06
-5.42644e-06
3.06559e-06
-6.06067e-06
2.39214e-06
-6.46946e-06
1.53864e-06
5.68887e-07
-2.86749e-07
9.77703e-07
-9.97099e-07
2.62981e-06
-1.98211e-06
3.83804e-06
-3.10499e-06
4.54982e-06
-4.24801e-06
4.77652e-06
-5.31489e-06
4.56488e-06
-6.2302e-06
3.9809e-06
-6.93726e-06
3.0992e-06
-7.39558e-06
1.99696e-06
7.52023e-07
-3.36334e-07
1.31404e-06
-1.16038e-06
3.45386e-06
-2.28804e-06
4.9657e-06
-3.55503e-06
5.81681e-06
-4.82667e-06
6.04816e-06
-5.99912e-06
5.73734e-06
-6.9961e-06
4.97788e-06
-7.76359e-06
3.86669e-06
-8.26455e-06
2.49792e-06
9.6215e-07
-3.90959e-07
1.705e-06
-1.33489e-06
4.3978e-06
-2.60499e-06
6.23579e-06
-4.00597e-06
7.21778e-06
-5.38684e-06
7.42903e-06
-6.63978e-06
6.99028e-06
-7.69247e-06
6.03056e-06
-8.4985e-06
4.67273e-06
-9.02845e-06
3.02787e-06
1.19665e-06
-4.53454e-07
2.15845e-06
-1.52568e-06
5.47003e-06
-2.93489e-06
7.64499e-06
-4.45012e-06
8.73302e-06
-5.90634e-06
8.88525e-06
-7.19783e-06
8.28177e-06
-8.26367e-06
7.09641e-06
-9.07208e-06
5.48113e-06
-9.60688e-06
3.56267e-06
1.44737e-06
-5.28333e-07
2.68679e-06
-1.73965e-06
6.68135e-06
-3.27796e-06
9.1833e-06
-4.87161e-06
1.03267e-05
-6.34699e-06
1.03606e-05
-7.61079e-06
9.54558e-06
-8.62432e-06
8.10994e-06
-9.37964e-06
6.23645e-06
-9.88093e-06
4.06396e-06
1.6979e-06
-6.23661e-07
3.31045e-06
-1.98737e-06
8.04505e-06
-3.63188e-06
1.08278e-05
-5.24189e-06
1.19367e-05
-6.64752e-06
1.17663e-05
-7.78441e-06
1.06825e-05
-8.65094e-06
8.97646e-06
-9.27422e-06
6.85973e-06
-9.68644e-06
4.47618e-06
1.92116e-06
-7.5407e-07
4.06452e-06
-2.28433e-06
9.57531e-06
-3.98697e-06
1.25305e-05
-5.50904e-06
1.34587e-05
-6.70954e-06
1.29668e-05
-7.57848e-06
1.15514e-05
-8.16996e-06
9.56794e-06
-8.55752e-06
7.24729e-06
-8.8076e-06
4.72626e-06
2.07847e-06
-9.45199e-07
5.00971e-06
-2.64847e-06
1.12786e-05
-4.31095e-06
1.41929e-05
-5.57323e-06
1.4721e-05
-6.37059e-06
1.37641e-05
-6.78316e-06
1.1964e-05
-6.94036e-06
9.72514e-06
-6.96956e-06
7.2765e-06
-6.97258e-06
4.72928e-06
2.12217e-06
-1.23731e-06
6.24702e-06
-3.08327e-06
1.31245e-05
-4.50766e-06
1.56173e-05
-5.23441e-06
1.54478e-05
-5.35511e-06
1.38848e-05
-5.0817e-06
1.16906e-05
-4.63073e-06
9.27417e-06
-4.17907e-06
6.82484e-06
-3.85414e-06
4.40436e-06
2.00481e-06
-1.6738e-06
7.92082e-06
-3.51335e-06
1.49641e-05
-4.31526e-06
1.64192e-05
-4.0888e-06
1.52213e-05
-3.19295e-06
1.2989e-05
-1.99862e-06
1.04962e-05
-7.94997e-07
8.07055e-06
2.19506e-07
5.81034e-06
9.18418e-07
3.70544e-06
1.69743e-06
-2.23068e-06
1.01515e-05
-3.59028e-06
1.63237e-05
-3.07775e-06
1.59067e-05
-1.34383e-06
1.34874e-05
8.97105e-07
1.0748e-05
3.15506e-06
8.23827e-06
5.13822e-06
6.08739e-06
6.68881e-06
4.25974e-06
7.72596e-06
2.6683e-06
1.21673e-06
-2.57381e-06
1.27253e-05
-2.18345e-06
1.59333e-05
7.18086e-07
1.30052e-05
4.46959e-06
9.73589e-06
8.13333e-06
7.08431e-06
1.13016e-05
5.06998e-06
1.38291e-05
3.55986e-06
1.56881e-05
2.40074e-06
1.68917e-05
1.46474e-06
6.53569e-07
-7.85014e-07
1.35103e-05
4.08079e-06
1.10675e-05
1.02975e-05
6.78843e-06
1.57936e-05
4.23979e-06
2.0158e-05
2.71991e-06
2.34581e-05
1.76994e-06
2.58608e-05
1.15713e-06
2.75215e-05
7.40027e-07
2.8554e-05
4.32269e-07
1.8127e-07
1.35103e-05
2.45778e-05
3.13663e-05
3.56061e-05
3.8326e-05
4.00959e-05
4.12531e-05
4.19931e-05
4.24253e-05
)
;

boundaryField
{
    movingWall
    {
        type            calculated;
        value           uniform 0;
    }
    fixedWalls
    {
        type            calculated;
        value           uniform 0;
    }
    frontAndBack
    {
        type            empty;
        value           nonuniform 0();
    }
    procBoundary0to1
    {
        type            processor;
        value           nonuniform List<scalar> 
20
(
-8.85628e-07
-2.3061e-06
-3.51862e-06
-4.61205e-06
-5.63863e-06
-6.62616e-06
-7.57872e-06
-8.47468e-06
-9.26295e-06
-9.8576e-06
-1.01315e-05
-9.9097e-06
-8.96491e-06
-7.01628e-06
-3.73679e-06
1.2258e-06
8.20666e-06
1.74549e-05
2.90263e-05
4.26066e-05
)
;
    }
}


// ************************************************************************* //
