/*--------------------------------*- C++ -*----------------------------------*\
| =========                 |                                                 |
| \\      /  F ield         | OpenFOAM: The Open Source CFD Toolbox           |
|  \\    /   O peration     | Version:  2.1.1                                 |
|   \\  /    A nd           | Web:      www.OpenFOAM.org                      |
|    \\/     M anipulation  |                                                 |
\*---------------------------------------------------------------------------*/
FoamFile
{
    version     2.0;
    format      ascii;
    class       volVectorField;
    location    "0.4";
    object      U;
}
// * * * * * * * * * * * * * * * * * * * * * * * * * * * * * * * * * * * * * //

dimensions      [0 1 -1 0 0 0 0];

internalField   nonuniform List<vector> 
200
(
(0.000253308 -0.000250537 0)
(0.000141063 0.000111368 0)
(-0.00117708 0.000564581 0)
(-0.00348121 0.000884977 0)
(-0.00637761 0.0010457 0)
(-0.00946965 0.00106174 0)
(-0.0124031 0.000957822 0)
(-0.014885 0.00076037 0)
(-0.0166895 0.000494531 0)
(-0.0176598 0.000184479 0)
(-7.7525e-05 -0.000169524 0)
(-0.00161171 0.00164475 0)
(-0.00569316 0.00361733 0)
(-0.0117193 0.00503492 0)
(-0.018893 0.00574335 0)
(-0.0264017 0.00576032 0)
(-0.0334703 0.00517172 0)
(-0.039428 0.00409245 0)
(-0.0437454 0.00264744 0)
(-0.0460507 0.000966739 0)
(-0.000528651 0.00109158 0)
(-0.00371159 0.00573639 0)
(-0.0105894 0.0102248 0)
(-0.0199926 0.0134081 0)
(-0.0307662 0.0149468 0)
(-0.041824 0.0148393 0)
(-0.0521221 0.013256 0)
(-0.0607467 0.0104564 0)
(-0.0669723 0.00674194 0)
(-0.0702878 0.00243872 0)
(-0.000928272 0.00347993 0)
(-0.00569176 0.012221 0)
(-0.0153025 0.0199224 0)
(-0.0279181 0.0251987 0)
(-0.0419873 0.0275979 0)
(-0.0561816 0.0271384 0)
(-0.0692552 0.0241097 0)
(-0.0801292 0.0189544 0)
(-0.0879522 0.0121958 0)
(-0.0921249 0.00440505 0)
(-0.00127898 0.00687802 0)
(-0.00753636 0.0209544 0)
(-0.0198056 0.0325115 0)
(-0.0355364 0.0401045 0)
(-0.0527457 0.0432917 0)
(-0.0698616 0.0421941 0)
(-0.0854671 0.0372787 0)
(-0.0983647 0.0292139 0)
(-0.107624 0.0187777 0)
(-0.112595 0.0068138 0)
(-0.00160758 0.011216 0)
(-0.00931833 0.0318755 0)
(-0.0242101 0.0479532 0)
(-0.0430041 0.0580736 0)
(-0.0632591 0.0619388 0)
(-0.0831557 0.0598827 0)
(-0.101128 0.0526296 0)
(-0.115896 0.0411268 0)
(-0.126492 0.0264376 0)
(-0.132243 0.009693 0)
(-0.00194009 0.0164775 0)
(-0.0111215 0.0449752 0)
(-0.0286509 0.0662347 0)
(-0.0504808 0.079061 0)
(-0.0736863 0.0834479 0)
(-0.0962056 0.0800756 0)
(-0.116354 0.0700256 0)
(-0.132817 0.0545857 0)
(-0.144634 0.0351322 0)
(-0.151146 0.0130848 0)
(-0.00230005 0.0226953 0)
(-0.0130251 0.0603017 0)
(-0.0332511 0.0873647 0)
(-0.0580801 0.102998 0)
(-0.0840752 0.107667 0)
(-0.108954 0.102563 0)
(-0.130968 0.0892451 0)
(-0.148835 0.0694115 0)
(-0.161667 0.044772 0)
(-0.16887 0.0170198 0)
(-0.00271164 0.0299472 0)
(-0.015108 0.0779571 0)
(-0.0381147 0.111357 0)
(-0.0658483 0.12975 0)
(-0.0943266 0.134318 0)
(-0.121099 0.126974 0)
(-0.144443 0.109903 0)
(-0.163213 0.085282 0)
(-0.176686 0.0551672 0)
(-0.184408 0.0214868 0)
(-0.00320764 0.0383597 0)
(-0.0174661 0.0980895 0)
(-0.0433409 0.138189 0)
(-0.0737563 0.159046 0)
(-0.10416 0.162901 0)
(-0.132031 0.152673 0)
(-0.155825 0.131341 0)
(-0.174678 0.10164 0)
(-0.188167 0.0659574 0)
(-0.196069 0.0263892 0)
(-0.00384394 0.0481286 0)
(-0.0202461 0.120893 0)
(-0.0490464 0.167752 0)
(-0.0816862 0.190366 0)
(-0.113053 0.192557 0)
(-0.140746 0.178615 0)
(-0.163621 0.152512 0)
(-0.181308 0.117592 0)
(-0.193846 0.0765345 0)
(-0.201361 0.0314938 0)
(-0.00472536 0.0595711 0)
(-0.0236946 0.146617 0)
(-0.0553828 0.199756 0)
(-0.0893762 0.22279 0)
(-0.120122 0.221892 0)
(-0.145675 0.203188 0)
(-0.16563 0.17184 0)
(-0.18037 0.13181 0)
(-0.19058 0.0859693 0)
(-0.196863 0.0363757 0)
(-0.00605157 0.0732282 0)
(-0.0282258 0.175563 0)
(-0.0625086 0.23357 0)
(-0.0962567 0.254746 0)
(-0.123856 0.248731 0)
(-0.144397 0.224026 0)
(-0.15867 0.187107 0)
(-0.168106 0.142461 0)
(-0.1742 0.0929679 0)
(-0.178117 0.040378 0)
(-0.00819205 0.0900461 0)
(-0.0344827 0.20802 0)
(-0.0704121 0.267883 0)
(-0.101023 0.283606 0)
(-0.121574 0.269811 0)
(-0.133107 0.23784 0)
(-0.138162 0.195404 0)
(-0.139461 0.147232 0)
(-0.139366 0.0959079 0)
(-0.139591 0.0426181 0)
(-0.0117675 0.111635 0)
(-0.0432596 0.243961 0)
(-0.078297 0.300034 0)
(-0.100627 0.305092 0)
(-0.10835 0.28046 0)
(-0.10573 0.240382 0)
(-0.0975276 0.19328 0)
(-0.087769 0.143548 0)
(-0.0794987 0.0930342 0)
(-0.0747786 0.0420931 0)
(-0.0175493 0.140659 0)
(-0.0547645 0.282145 0)
(-0.0827859 0.324718 0)
(-0.0880798 0.312473 0)
(-0.0751076 0.274455 0)
(-0.0525897 0.22677 0)
(-0.0274568 0.177287 0)
(-0.00451299 0.129134 0)
(0.0131007 0.0829109 0)
(0.0234489 0.0379448 0)
(-0.0254497 0.181711 0)
(-0.0657745 0.317771 0)
(-0.0733328 0.331362 0)
(-0.0480765 0.2954 0)
(-0.00557753 0.244211 0)
(0.0412195 0.19238 0)
(0.0846543 0.145046 0)
(0.120537 0.10297 0)
(0.146703 0.0651359 0)
(0.162058 0.0298894 0)
(-0.029649 0.239176 0)
(-0.0608413 0.335767 0)
(-0.0219423 0.300503 0)
(0.0505421 0.240127 0)
(0.127573 0.182949 0)
(0.197008 0.135389 0)
(0.254337 0.0973982 0)
(0.29825 0.0668498 0)
(0.328824 0.0413537 0)
(0.346478 0.0187773 0)
(0.00808309 0.281861 0)
(0.019783 0.294972 0)
(0.139066 0.210973 0)
(0.26446 0.143477 0)
(0.364367 0.0971858 0)
(0.440364 0.0657772 0)
(0.496742 0.044237 0)
(0.536872 0.0288851 0)
(0.563444 0.017198 0)
(0.578315 0.00748493 0)
(0.299604 0.146091 0)
(0.396272 0.127503 0)
(0.55742 0.0760895 0)
(0.674487 0.0437232 0)
(0.743888 0.025572 0)
(0.787153 0.0152421 0)
(0.815485 0.00921218 0)
(0.833954 0.00550912 0)
(0.845383 0.00302697 0)
(0.851376 0.00114983 0)
)
;

boundaryField
{
    movingWall
    {
        type            fixedValue;
        value           uniform (1 0 0);
    }
    fixedWalls
    {
        type            fixedValue;
        value           uniform (0 0 0);
    }
    frontAndBack
    {
        type            empty;
    }
    procBoundary0to1
    {
        type            processor;
        value           nonuniform List<vector> 
20
(
(-0.0177037 -0.000145183 0)
(-0.0461331 -0.000813034 0)
(-0.0704057 -0.00210642 0)
(-0.0923094 -0.00380804 0)
(-0.112904 -0.00578064 0)
(-0.132755 -0.00791669 0)
(-0.151954 -0.0100869 0)
(-0.170066 -0.0121339 0)
(-0.186059 -0.0138749 0)
(-0.198187 -0.0151126 0)
(-0.203857 -0.0156584 0)
(-0.199501 -0.0153698 0)
(-0.180483 -0.0141972 0)
(-0.141106 -0.0122312 0)
(-0.0747963 -0.00972658 0)
(0.0254074 -0.007071 0)
(0.165952 -0.00466916 0)
(0.351387 -0.00279258 0)
(0.58239 -0.00149405 0)
(0.852671 -0.000499776 0)
)
;
    }
}


// ************************************************************************* //
