/*--------------------------------*- C++ -*----------------------------------*\
| =========                 |                                                 |
| \\      /  F ield         | OpenFOAM: The Open Source CFD Toolbox           |
|  \\    /   O peration     | Version:  2.1.1                                 |
|   \\  /    A nd           | Web:      www.OpenFOAM.org                      |
|    \\/     M anipulation  |                                                 |
\*---------------------------------------------------------------------------*/
FoamFile
{
    version     2.0;
    format      ascii;
    class       volScalarField;
    location    "0.2";
    object      p;
}
// * * * * * * * * * * * * * * * * * * * * * * * * * * * * * * * * * * * * * //

dimensions      [0 2 -2 0 0 0 0];

internalField   nonuniform List<scalar> 
200
(
0.0432579
0.0588267
0.0725785
0.0833074
0.0900518
0.0922671
0.0900282
0.0842493
0.0768891
0.0710776
0.0417631
0.0543906
0.0655886
0.0744121
0.0801228
0.0823194
0.0810827
0.0770626
0.0712844
0.0653302
0.040778
0.0518749
0.0617722
0.0696405
0.0748117
0.0768839
0.0758493
0.0720958
0.065818
0.0575509
0.0400044
0.05066
0.0602378
0.0679215
0.0730094
0.0750089
0.073775
0.0694677
0.0616176
0.0501211
0.0390982
0.0500769
0.060055
0.0681718
0.0736338
0.0758063
0.0743794
0.0693027
0.0595419
0.0445581
0.0378284
0.0499117
0.0610556
0.0703112
0.0767433
0.0795265
0.0781503
0.0723473
0.0605566
0.0419123
0.0359261
0.0499544
0.0631212
0.0743548
0.0825317
0.08658
0.0857326
0.0794612
0.0656378
0.0430938
0.0330713
0.0499456
0.0660942
0.0803009
0.0912117
0.0974414
0.0978826
0.09165
0.0759129
0.0491371
0.0289219
0.0496076
0.0698102
0.0881671
0.10306
0.112713
0.115563
0.110205
0.0928494
0.0614293
0.0231682
0.0486771
0.0741101
0.0979863
0.118409
0.133138
0.140001
0.13683
0.118454
0.0819481
0.0156288
0.0469709
0.0788718
0.109809
0.137638
0.159598
0.172739
0.173789
0.155531
0.113581
0.00639514
0.0444921
0.0840723
0.123719
0.16115
0.193099
0.215679
0.224087
0.208059
0.160639
-0.00399592
0.0415576
0.0898598
0.139845
0.189333
0.234701
0.271085
0.291672
0.281748
0.229778
-0.0144255
0.0388814
0.0965718
0.158292
0.222387
0.285299
0.341406
0.381581
0.384917
0.331833
-0.0232107
0.0374917
0.10457
0.178852
0.259873
0.34498
0.428623
0.499705
0.529676
0.485388
-0.0284344
0.0383627
0.113823
0.200484
0.299985
0.412033
0.533035
0.651778
0.732772
0.722391
-0.028739
0.0417076
0.12328
0.22073
0.338935
0.482161
0.652001
0.841344
1.01527
1.0975
-0.0246119
0.0454667
0.128953
0.233082
0.367112
0.542684
0.771297
1.05932
1.40329
1.73014
-0.0193079
0.0427936
0.119228
0.218795
0.354822
0.547992
0.826398
1.23658
1.91168
2.92419
-0.0166824
0.0276672
0.0846246
0.161745
0.272425
0.44211
0.718228
1.22571
2.41104
4.84853
)
;

boundaryField
{
    movingWall
    {
        type            zeroGradient;
    }
    fixedWalls
    {
        type            zeroGradient;
    }
    frontAndBack
    {
        type            empty;
    }
    procBoundary1to0
    {
        type            processor;
        value           nonuniform List<scalar> 
20
(
0.0271452
0.028708
0.0293468
0.0290935
0.0279484
0.0256795
0.0219781
0.0164877
0.00882915
-0.00132797
-0.0141434
-0.0294316
-0.0464513
-0.0637183
-0.0789508
-0.0893403
-0.0924122
-0.0871565
-0.0735356
-0.0534633
)
;
    }
}


// ************************************************************************* //
