/*--------------------------------*- C++ -*----------------------------------*\
| =========                 |                                                 |
| \\      /  F ield         | OpenFOAM: The Open Source CFD Toolbox           |
|  \\    /   O peration     | Version:  2.1.1                                 |
|   \\  /    A nd           | Web:      www.OpenFOAM.org                      |
|    \\/     M anipulation  |                                                 |
\*---------------------------------------------------------------------------*/
FoamFile
{
    version     2.0;
    format      ascii;
    class       surfaceScalarField;
    location    "0.2";
    object      phi;
}
// * * * * * * * * * * * * * * * * * * * * * * * * * * * * * * * * * * * * * //

dimensions      [0 3 -1 0 0 0 0];

internalField   nonuniform List<scalar> 
370
(
-8.64088e-07
-2.13078e-08
-7.97185e-07
-6.69031e-08
-6.89916e-07
-1.07269e-07
-5.51842e-07
-1.38074e-07
-3.96854e-07
-1.54988e-07
-2.42699e-07
-1.54155e-07
-1.09716e-07
-1.32983e-07
-1.84191e-08
-9.12965e-08
1.56821e-08
-3.41011e-08
1.56823e-08
-2.25332e-06
-7.34262e-08
-2.09251e-06
-2.27708e-07
-1.83579e-06
-3.63987e-07
-1.50566e-06
-4.68206e-07
-1.1338e-06
-5.26851e-07
-7.59336e-07
-5.28618e-07
-4.253e-07
-4.67019e-07
-1.72654e-07
-3.43941e-07
-3.07975e-08
-1.75957e-07
-1.51149e-08
-3.44264e-06
-1.48345e-07
-3.21139e-06
-4.58961e-07
-2.84134e-06
-7.34037e-07
-2.36317e-06
-9.46377e-07
-1.81982e-06
-1.07019e-06
-1.26415e-06
-1.0843e-06
-7.54318e-07
-9.76846e-07
-3.46876e-07
-7.51382e-07
-8.73123e-08
-4.35521e-07
-1.02427e-07
-4.51902e-06
-2.39985e-07
-4.23157e-06
-7.46402e-07
-3.76834e-06
-1.19728e-06
-3.16477e-06
-1.54994e-06
-2.4712e-06
-1.76377e-06
-1.75058e-06
-1.80491e-06
-1.07421e-06
-1.65322e-06
-5.14991e-07
-1.3106e-06
-1.39273e-07
-8.11238e-07
-2.41701e-07
-5.53431e-06
-3.42717e-07
-5.20102e-06
-1.07969e-06
-4.65767e-06
-1.74062e-06
-3.94193e-06
-2.26568e-06
-3.1089e-06
-2.5968e-06
-2.22991e-06
-2.68389e-06
-1.38927e-06
-2.49387e-06
-6.78312e-07
-2.02155e-06
-1.87712e-07
-1.30184e-06
-4.29413e-07
-6.51682e-06
-4.50409e-07
-6.1474e-06
-1.44911e-06
-5.53529e-06
-2.35273e-06
-4.71786e-06
-3.08311e-06
-3.75262e-06
-3.56205e-06
-2.71786e-06
-3.71865e-06
-1.71114e-06
-3.50059e-06
-8.44461e-07
-2.88824e-06
-2.36119e-07
-1.91018e-06
-6.65533e-07
-7.47178e-06
-5.55833e-07
-7.07782e-06
-1.84307e-06
-6.41073e-06
-3.01983e-06
-5.5046e-06
-3.98923e-06
-4.41628e-06
-4.65038e-06
-3.2288e-06
-4.90613e-06
-2.05258e-06
-4.6768e-06
-1.02235e-06
-3.91847e-06
-2.88224e-07
-2.6443e-06
-9.53757e-07
-8.37883e-06
-6.50453e-07
-7.97584e-06
-2.24606e-06
-7.27363e-06
-3.72204e-06
-6.29915e-06
-4.96372e-06
-5.10403e-06
-5.8455e-06
-3.77206e-06
-6.2381e-06
-2.42458e-06
-6.02428e-06
-1.22059e-06
-5.12246e-06
-3.47659e-07
-3.51723e-06
-1.30142e-06
-9.18789e-06
-7.24704e-07
-8.79677e-06
-2.63718e-06
-8.08873e-06
-4.43008e-06
-7.07847e-06
-5.97397e-06
-5.80588e-06
-7.11809e-06
-4.34872e-06
-7.69526e-06
-2.8346e-06
-7.5384e-06
-1.44698e-06
-6.51008e-06
-4.18065e-07
-4.54614e-06
-1.71948e-06
-9.81313e-06
-7.68866e-07
-9.4611e-06
-2.98921e-06
-8.78886e-06
-5.10233e-06
-7.79278e-06
-6.97005e-06
-6.49203e-06
-8.41884e-06
-4.94783e-06
-9.23946e-06
-3.28502e-06
-9.20121e-06
-1.70863e-06
-8.08647e-06
-5.03571e-07
-5.7512e-06
-2.22305e-06
-1.01259e-05
-7.74616e-07
-9.84648e-06
-3.26867e-06
-9.26612e-06
-5.6827e-06
-8.35644e-06
-7.87973e-06
-7.10477e-06
-9.67051e-06
-5.54075e-06
-1.08035e-05
-3.77073e-06
-1.09712e-05
-2.01218e-06
-9.84502e-06
-6.0969e-07
-7.15369e-06
-2.83274e-06
-9.94786e-06
-7.37208e-07
-9.77917e-06
-3.43735e-06
-9.36141e-06
-6.10046e-06
-8.63605e-06
-8.60509e-06
-7.54672e-06
-1.07598e-05
-6.07182e-06
-1.22784e-05
-4.27442e-06
-1.27686e-05
-2.36372e-06
-1.17557e-05
-7.44797e-07
-8.77261e-06
-3.57754e-06
-9.0454e-06
-6.57903e-07
-9.02672e-06
-3.45603e-06
-8.85347e-06
-6.27371e-06
-8.43556e-06
-9.02299e-06
-7.66349e-06
-1.15319e-05
-6.44242e-06
-1.34995e-05
-4.75652e-06
-1.44545e-05
-2.76688e-06
-1.37454e-05
-9.22472e-07
-1.0617e-05
-4.50001e-06
-7.12987e-06
-5.45817e-07
-7.29496e-06
-3.29095e-06
-7.44971e-06
-6.11896e-06
-7.4788e-06
-8.99391e-06
-7.21866e-06
-1.1792e-05
-6.48328e-06
-1.42348e-05
-5.13377e-06
-1.5804e-05
-3.21515e-06
-1.5664e-05
-1.16443e-06
-1.26677e-05
-5.66445e-06
-3.86653e-06
-4.17726e-07
-4.23397e-06
-2.92351e-06
-4.78328e-06
-5.56965e-06
-5.39209e-06
-8.3851e-06
-5.85931e-06
-1.13248e-05
-5.90717e-06
-1.4187e-05
-5.2332e-06
-1.6478e-05
-3.66646e-06
-1.72307e-05
-1.50014e-06
-1.48341e-05
-7.16458e-06
1.10065e-06
-2.94204e-07
5.39722e-07
-2.36259e-06
-4.24136e-07
-4.60579e-06
-1.6936e-06
-7.11563e-06
-3.07323e-06
-9.94519e-06
-4.23142e-06
-1.30288e-05
-4.69603e-06
-1.60134e-05
-3.96738e-06
-1.79594e-05
-1.94498e-06
-1.68565e-05
-9.10956e-06
8.1026e-06
-1.91576e-07
7.39783e-06
-1.65781e-06
6.08577e-06
-3.29374e-06
4.19826e-06
-5.22812e-06
1.85341e-06
-7.60034e-06
-6.62254e-07
-1.05131e-05
-2.79252e-06
-1.38831e-05
-3.66226e-06
-1.70896e-05
-2.41159e-06
-1.81071e-05
-1.15212e-05
1.73753e-05
-1.1313e-07
1.66295e-05
-9.1203e-07
1.51663e-05
-1.83052e-06
1.29228e-05
-2.98459e-06
9.86118e-06
-4.53873e-06
6.06155e-06
-6.71349e-06
1.91208e-06
-9.73367e-06
-1.55976e-06
-1.36178e-05
-2.45838e-06
-1.72085e-05
-1.39795e-05
2.89615e-05
-4.90191e-08
2.83381e-05
-2.88656e-07
2.70813e-05
-5.73687e-07
2.50546e-05
-9.5791e-07
2.20514e-05
-1.53548e-06
1.78153e-05
-2.47738e-06
1.21722e-05
-4.09065e-06
5.47765e-06
-6.92322e-06
-1.29187e-07
-1.16017e-05
-1.41087e-05
4.25574e-05
4.22687e-05
4.1695e-05
4.07371e-05
3.92016e-05
3.67242e-05
3.26336e-05
2.57104e-05
1.41087e-05
)
;

boundaryField
{
    movingWall
    {
        type            calculated;
        value           uniform 0;
    }
    fixedWalls
    {
        type            calculated;
        value           uniform 0;
    }
    frontAndBack
    {
        type            empty;
        value           nonuniform 0();
    }
    procBoundary1to0
    {
        type            processor;
        value           nonuniform List<scalar> 
20
(
8.85397e-07
2.30544e-06
3.51756e-06
4.61066e-06
5.63704e-06
6.62452e-06
7.5772e-06
8.47345e-06
9.26214e-06
9.85729e-06
1.01317e-05
9.91045e-06
8.9661e-06
7.01778e-06
3.73844e-06
-1.22417e-06
-8.20523e-06
-1.74538e-05
-2.90256e-05
-4.26064e-05
)
;
    }
}


// ************************************************************************* //
