/*--------------------------------*- C++ -*----------------------------------*\
| =========                 |                                                 |
| \\      /  F ield         | OpenFOAM: The Open Source CFD Toolbox           |
|  \\    /   O peration     | Version:  2.1.1                                 |
|   \\  /    A nd           | Web:      www.OpenFOAM.org                      |
|    \\/     M anipulation  |                                                 |
\*---------------------------------------------------------------------------*/
FoamFile
{
    version     2.0;
    format      ascii;
    class       volVectorField;
    location    "0.2";
    object      U;
}
// * * * * * * * * * * * * * * * * * * * * * * * * * * * * * * * * * * * * * //

dimensions      [0 1 -1 0 0 0 0];

internalField   nonuniform List<vector> 
200
(
(-0.0176991 -0.000145143 0)
(-0.0168008 -0.000468135 0)
(-0.0150264 -0.000755164 0)
(-0.0125222 -0.000974003 0)
(-0.00952426 -0.00109092 0)
(-0.00635364 -0.00107376 0)
(-0.00340001 -0.000897925 0)
(-0.00108634 -0.000556291 0)
(0.000196266 -9.03944e-05 0)
(0.000267757 0.000262281 0)
(-0.0461199 -0.00081277 0)
(-0.0439502 -0.00254616 0)
(-0.0396912 -0.00407746 0)
(-0.0336944 -0.00524374 0)
(-0.026507 -0.0058851 0)
(-0.0188501 -0.00586344 0)
(-0.011564 -0.00509356 0)
(-0.00551207 -0.00358863 0)
(-0.00149282 -0.00155888 0)
(-4.26049e-05 0.000227301 0)
(-0.0703845 -0.00210567 0)
(-0.067267 -0.00652347 0)
(-0.0611366 -0.0104263 0)
(-0.0524751 -0.0134176 0)
(-0.0420264 -0.0151196 0)
(-0.0307661 -0.0152218 0)
(-0.019824 -0.0135526 0)
(-0.0103609 -0.0101764 0)
(-0.0035476 -0.00554981 0)
(-0.000476721 -0.000948712 0)
(-0.0922816 -0.0038066 0)
(-0.0884276 -0.0117931 0)
(-0.0807844 -0.018877 0)
(-0.0699052 -0.0243699 0)
(-0.0566548 -0.0276205 0)
(-0.042184 -0.0280945 0)
(-0.0278494 -0.0254912 0)
(-0.0150896 -0.0198866 0)
(-0.00550351 -0.0119247 0)
(-0.000861335 -0.0032241 0)
(-0.112872 -0.00577836 0)
(-0.108448 -0.0180495 0)
(-0.0995385 -0.0290035 0)
(-0.0867187 -0.0376228 0)
(-0.0709189 -0.0429338 0)
(-0.0534175 -0.0441175 0)
(-0.0357759 -0.0406682 0)
(-0.0197302 -0.032584 0)
(-0.00736863 -0.0205852 0)
(-0.00120331 -0.00649641 0)
(-0.132723 -0.0079135 0)
(-0.127896 -0.0251249 0)
(-0.117941 -0.040614 0)
(-0.103412 -0.0530054 0)
(-0.0852509 -0.0609505 0)
(-0.0648218 -0.0632638 0)
(-0.043876 -0.0591268 0)
(-0.0244722 -0.0483319 0)
(-0.00925213 -0.0315493 0)
(-0.00153734 -0.0107256 0)
(-0.151923 -0.0100828 0)
(-0.146889 -0.0328233 0)
(-0.136157 -0.0534855 0)
(-0.120202 -0.0703188 0)
(-0.0999151 -0.0815449 0)
(-0.076688 -0.0855116 0)
(-0.0524309 -0.0809439 0)
(-0.0295395 -0.0672604 0)
(-0.0112814 -0.0449283 0)
(-0.00189967 -0.0159474 0)
(-0.170041 -0.0121291 0)
(-0.165049 -0.0408821 0)
(-0.153909 -0.0672973 0)
(-0.136952 -0.0892516 0)
(-0.114928 -0.104487 0)
(-0.0891643 -0.110771 0)
(-0.0616626 -0.106188 0)
(-0.0351437 -0.0895591 0)
(-0.013584 -0.0609355 0)
(-0.00232597 -0.0222722 0)
(-0.186043 -0.0138696 0)
(-0.181406 -0.048944 0)
(-0.17038 -0.0815742 0)
(-0.153068 -0.109299 0)
(-0.12996 -0.129353 0)
(-0.102177 -0.138799 0)
(-0.0716836 -0.134859 0)
(-0.0414635 -0.115446 0)
(-0.0162867 -0.0798791 0)
(-0.00285443 -0.0298833 0)
(-0.198181 -0.0151072 0)
(-0.194277 -0.0565318 0)
(-0.184075 -0.0956214 0)
(-0.167361 -0.129663 0)
(-0.14421 -0.155394 0)
(-0.115335 -0.169066 0)
(-0.082443 -0.166773 0)
(-0.0486344 -0.145099 0)
(-0.019528 -0.102142 0)
(-0.00353342 -0.0390403 0)
(-0.203862 -0.0156532 0)
(-0.201113 -0.0630367 0)
(-0.192651 -0.10847 0)
(-0.177859 -0.149144 0)
(-0.156226 -0.181385 0)
(-0.127781 -0.200575 0)
(-0.0936449 -0.201394 0)
(-0.0567333 -0.178548 0)
(-0.0234799 -0.128154 0)
(-0.00443554 -0.0500973 0)
(-0.199516 -0.015365 0)
(-0.198349 -0.0677298 0)
(-0.192729 -0.118847 0)
(-0.181584 -0.166053 0)
(-0.163653 -0.205459 0)
(-0.137973 -0.231631 0)
(-0.1046 -0.237596 0)
(-0.0657357 -0.2155 0)
(-0.0283785 -0.15835 0)
(-0.00568222 -0.0635452 0)
(-0.180507 -0.0141932 0)
(-0.181287 -0.069809 0)
(-0.179715 -0.125193 0)
(-0.174287 -0.178157 0)
(-0.162909 -0.224947 0)
(-0.143327 -0.25956 0)
(-0.113944 -0.273302 0)
(-0.075397 -0.255044 0)
(-0.0345578 -0.193074 0)
(-0.00748655 -0.0800979 0)
(-0.141136 -0.0122281 0)
(-0.144082 -0.0684965 0)
(-0.147694 -0.125779 0)
(-0.150191 -0.18275 0)
(-0.148738 -0.236302 0)
(-0.139657 -0.280423 0)
(-0.119104 -0.305003 0)
(-0.0849412 -0.295139 0)
(-0.0424425 -0.232363 0)
(-0.0102164 -0.100831 0)
(-0.0748294 -0.00972434 0)
(-0.0799203 -0.0632023 0)
(-0.0894902 -0.118978 0)
(-0.101812 -0.176941 0)
(-0.113706 -0.235267 0)
(-0.12032 -0.288863 0)
(-0.115273 -0.327178 0)
(-0.0922723 -0.331779 0)
(-0.052318 -0.275392 0)
(-0.0144308 -0.127343 0)
(0.0253747 -0.0070695 0)
(0.0184779 -0.0537515 0)
(0.00295254 -0.103742 0)
(-0.0200204 -0.158309 0)
(-0.0477052 -0.217489 0)
(-0.0749996 -0.278347 0)
(-0.0935569 -0.331778 0)
(-0.0920695 -0.357671 0)
(-0.0632828 -0.319286 0)
(-0.020634 -0.161971 0)
(0.165923 -0.00466822 0)
(0.157909 -0.0406232 0)
(0.137707 -0.0802401 0)
(0.105419 -0.12591 0)
(0.0622447 -0.179718 0)
(0.0117924 -0.242012 0)
(-0.0378391 -0.307869 0)
(-0.0716846 -0.360136 0)
(-0.0700576 -0.356603 0)
(-0.0279126 -0.208373 0)
(0.351365 -0.00279204 0)
(0.343281 -0.0252617 0)
(0.321449 -0.0507838 0)
(0.284626 -0.0820438 0)
(0.231558 -0.122441 0)
(0.162171 -0.175665 0)
(0.0798935 -0.243427 0)
(-0.00319385 -0.319133 0)
(-0.0546711 -0.36861 0)
(-0.0284596 -0.267617 0)
(0.582376 -0.00149378 0)
(0.575681 -0.0108436 0)
(0.557295 -0.0218452 0)
(0.525124 -0.0363331 0)
(0.475768 -0.0572578 0)
(0.404531 -0.0893824 0)
(0.305172 -0.13974 0)
(0.173415 -0.216385 0)
(0.0411713 -0.311654 0)
(0.0184301 -0.299995 0)
(0.852666 -0.000499698 0)
(0.849376 -0.00221474 0)
(0.840994 -0.00433808 0)
(0.826137 -0.00742369 0)
(0.802075 -0.0125319 0)
(0.763619 -0.0217726 0)
(0.699107 -0.0392827 0)
(0.583952 -0.07266 0)
(0.415827 -0.127868 0)
(0.308819 -0.149468 0)
)
;

boundaryField
{
    movingWall
    {
        type            fixedValue;
        value           uniform (1 0 0);
    }
    fixedWalls
    {
        type            fixedValue;
        value           uniform (0 0 0);
    }
    frontAndBack
    {
        type            empty;
    }
    procBoundary1to0
    {
        type            processor;
        value           nonuniform List<vector> 
20
(
(-0.0176552 0.000184432 0)
(-0.0460375 0.000966503 0)
(-0.0702665 0.00243814 0)
(-0.0920969 0.00440405 0)
(-0.112563 0.00681237 0)
(-0.13221 0.00969114 0)
(-0.151115 0.0130825 0)
(-0.168846 0.0170172 0)
(-0.184392 0.0214839 0)
(-0.196062 0.0263861 0)
(-0.201366 0.0314905 0)
(-0.196878 0.0363722 0)
(-0.178141 0.0403746 0)
(-0.139621 0.0426148 0)
(-0.0748118 0.0420902 0)
(0.0234163 0.0379425 0)
(0.162029 0.0298878 0)
(0.346456 0.0187765 0)
(0.578301 0.00748468 0)
(0.851371 0.00114981 0)
)
;
    }
}


// ************************************************************************* //
