/*--------------------------------*- C++ -*----------------------------------*\
| =========                 |                                                 |
| \\      /  F ield         | OpenFOAM: The Open Source CFD Toolbox           |
|  \\    /   O peration     | Version:  2.1.1                                 |
|   \\  /    A nd           | Web:      www.OpenFOAM.org                      |
|    \\/     M anipulation  |                                                 |
\*---------------------------------------------------------------------------*/
FoamFile
{
    version     2.0;
    format      ascii;
    class       volScalarField;
    location    "0.3";
    object      p;
}
// * * * * * * * * * * * * * * * * * * * * * * * * * * * * * * * * * * * * * //

dimensions      [0 2 -2 0 0 0 0];

internalField   nonuniform List<scalar> 
200
(
6.24915e-06
-0.00581854
-0.012955
-0.0184064
-0.0204235
-0.0182296
-0.0117653
-0.00147567
0.0118423
0.0271453
0.00578585
-0.000212262
-0.00579735
-0.00953545
-0.0105916
-0.00842531
-0.00296265
0.00548137
0.0163079
0.0287084
0.0133394
0.00503884
-0.000989498
-0.00441685
-0.00526641
-0.00325739
0.00160887
0.00903435
0.0185073
0.0293472
0.0201427
0.00870046
0.00123114
-0.00266277
-0.00371605
-0.00187915
0.00273749
0.00979116
0.0187858
0.0290937
0.0245047
0.00977725
0.000594767
-0.00398139
-0.00529635
-0.00350127
0.00118095
0.00834122
0.0174676
0.0279481
0.0251805
0.00715417
-0.00379702
-0.00905166
-0.0105062
-0.00849376
-0.00335034
0.00443644
0.0143193
0.0256784
0.0210966
-0.000257851
-0.0129292
-0.0187035
-0.0200235
-0.0174073
-0.0113114
-0.00231208
0.00899702
0.021976
0.0111469
-0.013613
-0.0278691
-0.0338478
-0.0345967
-0.0308503
-0.0232053
-0.0123368
0.00111222
0.0164843
-0.00596166
-0.0342602
-0.0498633
-0.0555415
-0.0550826
-0.0495067
-0.0395852
-0.0261042
-0.00974886
0.00882432
-0.0318499
-0.0638686
-0.0804092
-0.0849992
-0.0824118
-0.0740697
-0.0609718
-0.0440267
-0.0239424
-0.00133418
-0.0686583
-0.104595
-0.121336
-0.123581
-0.117506
-0.105117
-0.0877085
-0.066315
-0.041627
-0.0141508
-0.119392
-0.159347
-0.174905
-0.172747
-0.161138
-0.142919
-0.119749
-0.0927662
-0.0625667
-0.0294396
-0.188616
-0.232231
-0.243928
-0.233938
-0.213684
-0.187144
-0.156362
-0.12249
-0.0858864
-0.0464594
-0.283961
-0.329293
-0.331821
-0.30827
-0.274698
-0.236429
-0.195754
-0.153599
-0.109828
-0.0637259
-0.419305
-0.459659
-0.44234
-0.395782
-0.342119
-0.287729
-0.234605
-0.18292
-0.131596
-0.0789572
-0.620519
-0.636732
-0.578667
-0.494183
-0.411231
-0.335648
-0.26777
-0.205968
-0.147523
-0.0893454
-0.935912
-0.878504
-0.741732
-0.59794
-0.474384
-0.37265
-0.288859
-0.217754
-0.153939
-0.092416
-1.47641
-1.20662
-0.920495
-0.69138
-0.517297
-0.387535
-0.290052
-0.213329
-0.148108
-0.0871591
-2.53964
-1.63054
-1.04443
-0.710952
-0.495744
-0.352086
-0.254522
-0.183575
-0.126152
-0.0735374
-4.36666
-2.04463
-0.973536
-0.563176
-0.357842
-0.240142
-0.170113
-0.123775
-0.0874638
-0.0534643
)
;

boundaryField
{
    movingWall
    {
        type            zeroGradient;
    }
    fixedWalls
    {
        type            zeroGradient;
    }
    frontAndBack
    {
        type            empty;
    }
    procBoundary0to1
    {
        type            processor;
        value           nonuniform List<scalar> 
20
(
0.0432592
0.0417641
0.0407786
0.0400047
0.0390978
0.0378271
0.0359237
0.0330676
0.0289169
0.0231619
0.0156214
0.00638714
-0.00400396
-0.0144331
-0.0232172
-0.0284396
-0.0287431
-0.0246149
-0.0193104
-0.0166849
)
;
    }
}


// ************************************************************************* //
