/*--------------------------------*- C++ -*----------------------------------*\
| =========                 |                                                 |
| \\      /  F ield         | OpenFOAM: The Open Source CFD Toolbox           |
|  \\    /   O peration     | Version:  2.1.1                                 |
|   \\  /    A nd           | Web:      www.OpenFOAM.org                      |
|    \\/     M anipulation  |                                                 |
\*---------------------------------------------------------------------------*/
FoamFile
{
    version     2.0;
    format      ascii;
    class       surfaceScalarField;
    location    "0.3";
    object      phi;
}
// * * * * * * * * * * * * * * * * * * * * * * * * * * * * * * * * * * * * * //

dimensions      [0 3 -1 0 0 0 0];

internalField   nonuniform List<scalar> 
370
(
1.42222e-08
-1.42747e-08
-2.2214e-08
3.64363e-08
-1.14266e-07
9.20517e-08
-2.4548e-07
1.31215e-07
-3.96074e-07
1.50594e-07
-5.47331e-07
1.51257e-07
-6.83143e-07
1.35813e-07
-7.90601e-07
1.07458e-07
-8.60129e-07
6.95283e-08
2.54247e-08
-3.4218e-08
1.99433e-08
-1.80369e-07
1.82588e-07
-4.33969e-07
3.45652e-07
-7.64396e-07
4.61641e-07
-1.13215e-06
5.18351e-07
-1.49716e-06
5.16267e-07
-1.82324e-06
4.61886e-07
-2.08042e-06
3.64639e-07
-2.24614e-06
2.35255e-07
8.51815e-08
-9.22252e-08
1.12169e-07
-3.56981e-07
4.47344e-07
-7.64521e-07
7.53192e-07
-1.26842e-06
9.65542e-07
-1.8146e-06
1.06453e-06
-2.34892e-06
1.05058e-06
-2.82228e-06
9.35247e-07
-3.19377e-06
7.36128e-07
-3.43242e-06
4.73912e-07
1.71085e-07
-1.45204e-07
2.57372e-07
-5.25435e-07
8.27575e-07
-1.08158e-06
1.30933e-06
-1.74742e-06
1.63138e-06
-2.4542e-06
1.77131e-06
-3.1362e-06
1.73259e-06
-3.73509e-06
1.53413e-06
-4.20268e-06
1.20372e-06
-4.50268e-06
7.73913e-07
2.80094e-07
-1.936e-07
4.50972e-07
-6.84966e-07
1.31894e-06
-1.38555e-06
2.00992e-06
-2.20713e-06
2.45296e-06
-3.06531e-06
2.62949e-06
-3.88358e-06
2.55086e-06
-4.59627e-06
2.24682e-06
-5.15032e-06
1.75777e-06
-5.50617e-06
1.12976e-06
4.12167e-07
-2.3993e-07
6.90902e-07
-8.40311e-07
1.91932e-06
-1.68321e-06
2.85282e-06
-2.65694e-06
3.42669e-06
-3.66067e-06
3.63323e-06
-4.60756e-06
3.49775e-06
-5.42611e-06
3.06537e-06
-6.0603e-06
2.39196e-06
-6.46907e-06
1.53853e-06
5.68861e-07
-2.86735e-07
9.77637e-07
-9.97052e-07
2.62964e-06
-1.98201e-06
3.83778e-06
-3.10484e-06
4.54951e-06
-4.24781e-06
4.7762e-06
-5.31464e-06
4.56457e-06
-6.2299e-06
3.98063e-06
-6.93693e-06
3.099e-06
-7.39523e-06
1.99683e-06
7.51992e-07
-3.36323e-07
1.31396e-06
-1.16034e-06
3.45366e-06
-2.28796e-06
4.9654e-06
-3.55491e-06
5.81646e-06
-4.82651e-06
6.04779e-06
-5.99892e-06
5.73699e-06
-6.99586e-06
4.97757e-06
-7.76333e-06
3.86646e-06
-8.26428e-06
2.49778e-06
9.62115e-07
-3.90953e-07
1.70491e-06
-1.33487e-06
4.39758e-06
-2.60494e-06
6.23548e-06
-4.00589e-06
7.21741e-06
-5.38674e-06
7.42864e-06
-6.63965e-06
6.9899e-06
-7.69232e-06
6.03024e-06
-8.49833e-06
4.67248e-06
-9.02827e-06
3.02772e-06
1.19661e-06
-4.53452e-07
2.15836e-06
-1.52568e-06
5.46981e-06
-2.93487e-06
7.64467e-06
-4.4501e-06
8.73264e-06
-5.9063e-06
8.88484e-06
-7.19778e-06
8.28138e-06
-8.26362e-06
7.09608e-06
-9.07202e-06
5.48088e-06
-9.60682e-06
3.56251e-06
1.44733e-06
-5.28337e-07
2.6867e-06
-1.73966e-06
6.68113e-06
-3.27798e-06
9.18299e-06
-4.87164e-06
1.03263e-05
-6.34703e-06
1.03602e-05
-7.61084e-06
9.5452e-06
-8.62437e-06
8.10961e-06
-9.37969e-06
6.2362e-06
-9.88099e-06
4.06381e-06
1.69785e-06
-6.2367e-07
3.31037e-06
-1.9874e-06
8.04486e-06
-3.63194e-06
1.08275e-05
-5.24197e-06
1.19363e-05
-6.64763e-06
1.17659e-05
-7.78455e-06
1.06821e-05
-8.65109e-06
8.97615e-06
-9.27438e-06
6.8595e-06
-9.68661e-06
4.47603e-06
1.92112e-06
-7.54083e-07
4.06446e-06
-2.28437e-06
9.57515e-06
-3.98706e-06
1.25302e-05
-5.50917e-06
1.34584e-05
-6.70971e-06
1.29664e-05
-7.57868e-06
1.15511e-05
-8.17019e-06
9.56766e-06
-8.55778e-06
7.24708e-06
-8.80787e-06
4.72613e-06
2.07843e-06
-9.45215e-07
5.00967e-06
-2.64852e-06
1.12785e-05
-4.31105e-06
1.41927e-05
-5.57338e-06
1.47208e-05
-6.3708e-06
1.37638e-05
-6.78342e-06
1.19637e-05
-6.94065e-06
9.7249e-06
-6.96989e-06
7.27632e-06
-6.97293e-06
4.72917e-06
2.12213e-06
-1.23732e-06
6.24699e-06
-3.08332e-06
1.31245e-05
-4.50776e-06
1.56172e-05
-5.23457e-06
1.54476e-05
-5.35534e-06
1.38846e-05
-5.08198e-06
1.16903e-05
-4.63106e-06
9.27398e-06
-4.17944e-06
6.82469e-06
-3.85453e-06
4.40426e-06
2.00478e-06
-1.67381e-06
7.92081e-06
-3.5134e-06
1.4964e-05
-4.31536e-06
1.64192e-05
-4.08896e-06
1.52212e-05
-3.19317e-06
1.29888e-05
-1.99889e-06
1.04961e-05
-7.95325e-07
8.07041e-06
2.19139e-07
5.81022e-06
9.18026e-07
3.70537e-06
1.69741e-06
-2.23069e-06
1.01515e-05
-3.59032e-06
1.63237e-05
-3.07783e-06
1.59067e-05
-1.34396e-06
1.34873e-05
8.96915e-07
1.07479e-05
3.15481e-06
8.23818e-06
5.13793e-06
6.0873e-06
6.68848e-06
4.25967e-06
7.7256e-06
2.66825e-06
1.21671e-06
-2.57382e-06
1.27253e-05
-2.18348e-06
1.59333e-05
7.18031e-07
1.30052e-05
4.4695e-06
9.73585e-06
8.13318e-06
7.08426e-06
1.13014e-05
5.06993e-06
1.38289e-05
3.55982e-06
1.56879e-05
2.40071e-06
1.68914e-05
1.46472e-06
6.53561e-07
-7.85013e-07
1.35103e-05
4.08079e-06
1.10675e-05
1.02975e-05
6.78842e-06
1.57936e-05
4.23978e-06
2.0158e-05
2.71989e-06
2.3458e-05
1.76993e-06
2.58607e-05
1.15711e-06
2.75214e-05
7.40017e-07
2.85538e-05
4.32263e-07
1.81268e-07
1.35103e-05
2.45779e-05
3.13663e-05
3.56061e-05
3.8326e-05
4.00959e-05
4.1253e-05
4.1993e-05
4.24253e-05
)
;

boundaryField
{
    movingWall
    {
        type            calculated;
        value           uniform 0;
    }
    fixedWalls
    {
        type            calculated;
        value           uniform 0;
    }
    frontAndBack
    {
        type            empty;
        value           nonuniform 0();
    }
    procBoundary0to1
    {
        type            processor;
        value           nonuniform List<scalar> 
20
(
-8.85554e-07
-2.3059e-06
-3.51833e-06
-4.61169e-06
-5.63824e-06
-6.62577e-06
-7.57837e-06
-8.4744e-06
-9.26277e-06
-9.85753e-06
-1.01315e-05
-9.90987e-06
-8.96518e-06
-7.01663e-06
-3.73718e-06
1.2254e-06
8.20629e-06
1.74546e-05
2.90261e-05
4.26065e-05
)
;
    }
}


// ************************************************************************* //
