/*--------------------------------*- C++ -*----------------------------------*\
| =========                 |                                                 |
| \\      /  F ield         | OpenFOAM: The Open Source CFD Toolbox           |
|  \\    /   O peration     | Version:  2.1.1                                 |
|   \\  /    A nd           | Web:      www.OpenFOAM.org                      |
|    \\/     M anipulation  |                                                 |
\*---------------------------------------------------------------------------*/
FoamFile
{
    version     2.0;
    format      ascii;
    class       volVectorField;
    location    "0.3";
    object      U;
}
// * * * * * * * * * * * * * * * * * * * * * * * * * * * * * * * * * * * * * //

dimensions      [0 1 -1 0 0 0 0];

internalField   nonuniform List<vector> 
200
(
(0.000253284 -0.00025051 0)
(0.000141042 0.000111365 0)
(-0.00117699 0.000564539 0)
(-0.00348093 0.000884904 0)
(-0.00637709 0.00104562 0)
(-0.00946887 0.00106165 0)
(-0.0124021 0.000957742 0)
(-0.0148838 0.000760307 0)
(-0.0166881 0.000494489 0)
(-0.0176584 0.000184468 0)
(-7.75203e-05 -0.000169497 0)
(-0.00161157 0.00164463 0)
(-0.00569267 0.00361703 0)
(-0.0117183 0.00503449 0)
(-0.0188913 0.00574286 0)
(-0.0263994 0.00575982 0)
(-0.0334674 0.00517129 0)
(-0.0394246 0.00409211 0)
(-0.0437416 0.00264723 0)
(-0.0460468 0.000966685 0)
(-0.000528604 0.0010915 0)
(-0.00371127 0.00573591 0)
(-0.0105885 0.0102239 0)
(-0.0199909 0.0134069 0)
(-0.0307635 0.0149455 0)
(-0.0418205 0.014838 0)
(-0.0521177 0.0132549 0)
(-0.0607416 0.0104555 0)
(-0.0669666 0.00674141 0)
(-0.0702819 0.00243858 0)
(-0.00092819 0.00347964 0)
(-0.00569129 0.01222 0)
(-0.0153013 0.0199207 0)
(-0.0279159 0.0251965 0)
(-0.0419839 0.0275956 0)
(-0.0561771 0.0271361 0)
(-0.0692497 0.0241076 0)
(-0.0801228 0.0189528 0)
(-0.0879452 0.0121948 0)
(-0.0921176 0.00440481 0)
(-0.00127888 0.00687746 0)
(-0.00753579 0.0209527 0)
(-0.0198042 0.0325088 0)
(-0.0355338 0.0401013 0)
(-0.0527419 0.0432881 0)
(-0.0698566 0.0421907 0)
(-0.085461 0.0372756 0)
(-0.0983577 0.0292115 0)
(-0.107617 0.0187763 0)
(-0.112587 0.00681345 0)
(-0.00160747 0.0112151 0)
(-0.00931775 0.031873 0)
(-0.0242086 0.0479495 0)
(-0.0430014 0.0580691 0)
(-0.0632553 0.061934 0)
(-0.0831506 0.0598781 0)
(-0.101121 0.0526255 0)
(-0.115889 0.0411237 0)
(-0.126484 0.0264357 0)
(-0.132236 0.00969253 0)
(-0.00193999 0.0164763 0)
(-0.0111209 0.044972 0)
(-0.0286496 0.06623 0)
(-0.0504784 0.0790553 0)
(-0.0736828 0.0834419 0)
(-0.096201 0.0800699 0)
(-0.116348 0.0700206 0)
(-0.132811 0.0545819 0)
(-0.144627 0.0351299 0)
(-0.151139 0.0130842 0)
(-0.00229997 0.0226938 0)
(-0.0130247 0.0602979 0)
(-0.03325 0.0873592 0)
(-0.0580782 0.102991 0)
(-0.0840724 0.10766 0)
(-0.108951 0.102556 0)
(-0.130964 0.0892393 0)
(-0.14883 0.0694071 0)
(-0.161662 0.0447693 0)
(-0.168865 0.0170192 0)
(-0.00271159 0.0299456 0)
(-0.0151077 0.0779528 0)
(-0.038114 0.111351 0)
(-0.0658471 0.129743 0)
(-0.0943249 0.13431 0)
(-0.121096 0.126967 0)
(-0.144441 0.109896 0)
(-0.163209 0.0852772 0)
(-0.176683 0.0551643 0)
(-0.184404 0.0214861 0)
(-0.00320763 0.0383579 0)
(-0.0174661 0.0980851 0)
(-0.0433407 0.138183 0)
(-0.073756 0.159038 0)
(-0.104159 0.162893 0)
(-0.132031 0.152665 0)
(-0.155824 0.131335 0)
(-0.174677 0.101635 0)
(-0.188166 0.0659544 0)
(-0.196067 0.0263884 0)
(-0.00384397 0.0481269 0)
(-0.0202463 0.120889 0)
(-0.0490468 0.167745 0)
(-0.0816867 0.190358 0)
(-0.113053 0.192549 0)
(-0.140747 0.178607 0)
(-0.163622 0.152505 0)
(-0.181309 0.117587 0)
(-0.193847 0.0765314 0)
(-0.201362 0.031493 0)
(-0.00472543 0.0595695 0)
(-0.023695 0.146613 0)
(-0.0553837 0.19975 0)
(-0.0893776 0.222783 0)
(-0.120124 0.221884 0)
(-0.145678 0.20318 0)
(-0.165633 0.171833 0)
(-0.180374 0.131805 0)
(-0.190584 0.0859662 0)
(-0.196866 0.0363748 0)
(-0.00605167 0.0732268 0)
(-0.0282263 0.175559 0)
(-0.0625098 0.233565 0)
(-0.0962588 0.25474 0)
(-0.123859 0.248724 0)
(-0.144401 0.224019 0)
(-0.158674 0.187101 0)
(-0.168111 0.142457 0)
(-0.174205 0.0929651 0)
(-0.178122 0.0403772 0)
(-0.00819217 0.090045 0)
(-0.0344833 0.208017 0)
(-0.0704135 0.267879 0)
(-0.101025 0.2836 0)
(-0.121577 0.269805 0)
(-0.133112 0.237834 0)
(-0.138167 0.195398 0)
(-0.139468 0.147228 0)
(-0.139373 0.0959054 0)
(-0.139598 0.0426173 0)
(-0.0117676 0.111635 0)
(-0.0432603 0.243959 0)
(-0.0782986 0.30003 0)
(-0.10063 0.305087 0)
(-0.108354 0.280455 0)
(-0.105735 0.240377 0)
(-0.0975337 0.193276 0)
(-0.087776 0.143544 0)
(-0.0795063 0.093032 0)
(-0.0747865 0.0420924 0)
(-0.0175494 0.140658 0)
(-0.054765 0.282144 0)
(-0.0827874 0.324716 0)
(-0.0880824 0.31247 0)
(-0.0751113 0.274452 0)
(-0.0525946 0.226766 0)
(-0.0274629 0.177284 0)
(-0.00451999 0.129131 0)
(0.013093 0.0829092 0)
(0.0234409 0.0379442 0)
(-0.0254498 0.181711 0)
(-0.0657749 0.31777 0)
(-0.073334 0.331361 0)
(-0.0480787 0.295398 0)
(-0.00558075 0.244209 0)
(0.0412152 0.192377 0)
(0.0846489 0.145044 0)
(0.120531 0.102968 0)
(0.146696 0.0651348 0)
(0.16205 0.029889 0)
(-0.029649 0.239176 0)
(-0.0608415 0.335767 0)
(-0.021943 0.300502 0)
(0.0505406 0.240126 0)
(0.12757 0.182947 0)
(0.197005 0.135387 0)
(0.254333 0.0973969 0)
(0.298245 0.0668488 0)
(0.328818 0.0413531 0)
(0.346472 0.0187771 0)
(0.00808312 0.281861 0)
(0.019783 0.294972 0)
(0.139066 0.210972 0)
(0.264459 0.143476 0)
(0.364366 0.0971853 0)
(0.440362 0.0657766 0)
(0.49674 0.0442365 0)
(0.536869 0.0288847 0)
(0.563441 0.0171977 0)
(0.57831 0.00748485 0)
(0.299604 0.146091 0)
(0.396272 0.127503 0)
(0.55742 0.0760895 0)
(0.674487 0.0437232 0)
(0.743888 0.0255719 0)
(0.787152 0.015242 0)
(0.815484 0.00921209 0)
(0.833953 0.00550905 0)
(0.845382 0.00302693 0)
(0.851374 0.00114982 0)
)
;

boundaryField
{
    movingWall
    {
        type            fixedValue;
        value           uniform (1 0 0);
    }
    fixedWalls
    {
        type            fixedValue;
        value           uniform (0 0 0);
    }
    frontAndBack
    {
        type            empty;
    }
    procBoundary0to1
    {
        type            processor;
        value           nonuniform List<vector> 
20
(
(-0.0177022 -0.000145161 0)
(-0.0461291 -0.000812918 0)
(-0.0703999 -0.00210614 0)
(-0.0923022 -0.00380755 0)
(-0.112896 -0.00577991 0)
(-0.132748 -0.00791573 0)
(-0.151947 -0.0100857 0)
(-0.17006 -0.0121325 0)
(-0.186055 -0.0138734 0)
(-0.198185 -0.0151111 0)
(-0.203858 -0.015657 0)
(-0.199505 -0.0153684 0)
(-0.180489 -0.014196 0)
(-0.141113 -0.0122303 0)
(-0.0748042 -0.00972588 0)
(0.0253994 -0.00707051 0)
(0.165945 -0.00466885 0)
(0.351381 -0.0027924 0)
(0.582386 -0.00149396 0)
(0.85267 -0.000499751 0)
)
;
    }
}


// ************************************************************************* //
