/*--------------------------------*- C++ -*----------------------------------*\
| =========                 |                                                 |
| \\      /  F ield         | OpenFOAM: The Open Source CFD Toolbox           |
|  \\    /   O peration     | Version:  2.1.1                                 |
|   \\  /    A nd           | Web:      www.OpenFOAM.org                      |
|    \\/     M anipulation  |                                                 |
\*---------------------------------------------------------------------------*/
FoamFile
{
    version     2.0;
    format      ascii;
    class       volScalarField;
    location    "0.5";
    object      p;
}
// * * * * * * * * * * * * * * * * * * * * * * * * * * * * * * * * * * * * * //

dimensions      [0 2 -2 0 0 0 0];

internalField   nonuniform List<scalar> 
200
(
6.10502e-06
-0.00581951
-0.0129569
-0.0184092
-0.0204268
-0.0182333
-0.0117689
-0.00147879
0.01184
0.0271441
0.00578634
-0.000212552
-0.00579835
-0.00953704
-0.0105935
-0.00842747
-0.0029648
0.00547937
0.0163063
0.0287074
0.0133408
0.00503924
-0.000989835
-0.00441771
-0.00526762
-0.00325875
0.00160749
0.00903302
0.0185061
0.0293463
0.0201451
0.00870145
0.00123128
-0.00266317
-0.00371684
-0.00188014
0.00273645
0.0097901
0.0187847
0.0290928
0.0245076
0.0097786
0.000595214
-0.00398151
-0.00529689
-0.0035021
0.00117998
0.00834017
0.0174664
0.0279471
0.0251835
0.00715555
-0.00379653
-0.00905171
-0.0105067
-0.00849459
-0.00335142
0.00443519
0.0143179
0.025677
0.021099
-0.000256827
-0.012929
-0.0187037
-0.0200242
-0.0174083
-0.0113128
-0.00231372
0.00899519
0.0219741
0.0111483
-0.0136126
-0.0278694
-0.0338485
-0.0345978
-0.0308517
-0.0232071
-0.012339
0.00110982
0.0164818
-0.00596158
-0.0342608
-0.0498643
-0.0555428
-0.0550843
-0.0495087
-0.0395875
-0.0261069
-0.00975189
0.00882115
-0.0318514
-0.0638703
-0.0804111
-0.0850013
-0.0824141
-0.0740723
-0.0609748
-0.0440301
-0.023946
-0.00133797
-0.0686614
-0.104597
-0.121338
-0.123584
-0.117509
-0.10512
-0.087712
-0.0663189
-0.0416312
-0.0141551
-0.119396
-0.159351
-0.174909
-0.172751
-0.161142
-0.142923
-0.119753
-0.0927704
-0.0625712
-0.0294442
-0.188622
-0.232235
-0.243932
-0.233941
-0.213688
-0.187148
-0.156366
-0.122494
-0.085891
-0.0464642
-0.283968
-0.329298
-0.331825
-0.308273
-0.274702
-0.236433
-0.195757
-0.153603
-0.109832
-0.0637305
-0.419311
-0.459664
-0.442343
-0.395785
-0.342122
-0.287732
-0.234608
-0.182923
-0.1316
-0.0789615
-0.620524
-0.636736
-0.578669
-0.494185
-0.411233
-0.33565
-0.267772
-0.205971
-0.147526
-0.0893491
-0.935916
-0.878507
-0.741734
-0.597941
-0.474385
-0.372651
-0.28886
-0.217756
-0.153941
-0.0924191
-1.47641
-1.20662
-0.920495
-0.69138
-0.517297
-0.387535
-0.290052
-0.21333
-0.14811
-0.0871616
-2.53964
-1.63054
-1.04443
-0.710951
-0.495742
-0.352085
-0.254522
-0.183575
-0.126153
-0.0735393
-4.36666
-2.04463
-0.973534
-0.563173
-0.357839
-0.240139
-0.170111
-0.123774
-0.0874639
-0.0534658
)
;

boundaryField
{
    movingWall
    {
        type            zeroGradient;
    }
    fixedWalls
    {
        type            zeroGradient;
    }
    frontAndBack
    {
        type            empty;
    }
    procBoundary0to1
    {
        type            processor;
        value           nonuniform List<scalar> 
20
(
0.0432595
0.041764
0.0407783
0.0400041
0.0390968
0.0378257
0.0359218
0.0330651
0.0289138
0.0231581
0.0156171
0.00638256
-0.00400868
-0.0144377
-0.0232215
-0.0284435
-0.0287465
-0.0246179
-0.0193132
-0.0166877
)
;
    }
}


// ************************************************************************* //
