/*--------------------------------*- C++ -*----------------------------------*\
| =========                 |                                                 |
| \\      /  F ield         | OpenFOAM: The Open Source CFD Toolbox           |
|  \\    /   O peration     | Version:  2.1.1                                 |
|   \\  /    A nd           | Web:      www.OpenFOAM.org                      |
|    \\/     M anipulation  |                                                 |
\*---------------------------------------------------------------------------*/
FoamFile
{
    version     2.0;
    format      ascii;
    class       surfaceScalarField;
    location    "0.5";
    object      phi;
}
// * * * * * * * * * * * * * * * * * * * * * * * * * * * * * * * * * * * * * //

dimensions      [0 3 -1 0 0 0 0];

internalField   nonuniform List<scalar> 
370
(
1.4225e-08
-1.42762e-08
-2.22152e-08
3.64404e-08
-1.14277e-07
9.20622e-08
-2.45507e-07
1.3123e-07
-3.96118e-07
1.50611e-07
-5.47392e-07
1.51273e-07
-6.8322e-07
1.35827e-07
-7.90691e-07
1.07469e-07
-8.60228e-07
6.9535e-08
2.54264e-08
-3.42212e-08
1.99451e-08
-1.80389e-07
1.82608e-07
-4.34019e-07
3.45692e-07
-7.64484e-07
4.61696e-07
-1.13228e-06
5.18412e-07
-1.49734e-06
5.16328e-07
-1.82345e-06
4.61939e-07
-2.08066e-06
3.6468e-07
-2.2464e-06
2.3528e-07
8.51878e-08
-9.22353e-08
1.12181e-07
-3.57021e-07
4.47394e-07
-7.64608e-07
7.53279e-07
-1.26857e-06
9.65654e-07
-1.81481e-06
1.06466e-06
-2.34919e-06
1.05071e-06
-2.8226e-06
9.35355e-07
-3.19413e-06
7.3621e-07
-3.43281e-06
4.73962e-07
1.71098e-07
-1.45219e-07
2.57401e-07
-5.25492e-07
8.27666e-07
-1.08169e-06
1.30948e-06
-1.7476e-06
1.63157e-06
-2.45446e-06
1.77151e-06
-3.13654e-06
1.73279e-06
-3.73549e-06
1.5343e-06
-4.20313e-06
1.20385e-06
-4.50315e-06
7.73991e-07
2.80113e-07
-1.93619e-07
4.51021e-07
-6.85033e-07
1.31908e-06
-1.38569e-06
2.01013e-06
-2.20734e-06
2.45322e-06
-3.0656e-06
2.62977e-06
-3.88395e-06
2.55113e-06
-4.5967e-06
2.24706e-06
-5.15081e-06
1.75795e-06
-5.50668e-06
1.12987e-06
4.12194e-07
-2.3995e-07
6.90971e-07
-8.40381e-07
1.91951e-06
-1.68335e-06
2.8531e-06
-2.65715e-06
3.42702e-06
-3.66097e-06
3.63359e-06
-4.60793e-06
3.4981e-06
-5.42655e-06
3.06567e-06
-6.06079e-06
2.39219e-06
-6.46958e-06
1.53867e-06
5.68895e-07
-2.86754e-07
9.77725e-07
-9.97115e-07
2.62987e-06
-1.98214e-06
3.83812e-06
-3.10503e-06
4.54992e-06
-4.24808e-06
4.77663e-06
-5.31497e-06
4.56499e-06
-6.23029e-06
3.98099e-06
-6.93737e-06
3.09927e-06
-7.39569e-06
1.997e-06
7.52032e-07
-3.36338e-07
1.31406e-06
-1.16039e-06
3.45393e-06
-2.28806e-06
4.96579e-06
-3.55507e-06
5.81692e-06
-4.82672e-06
6.04828e-06
-5.99919e-06
5.73746e-06
-6.99617e-06
4.97798e-06
-7.76367e-06
3.86677e-06
-8.26464e-06
2.49797e-06
9.6216e-07
-3.90962e-07
1.70503e-06
-1.3349e-06
4.39787e-06
-2.60501e-06
6.2359e-06
-4.00599e-06
7.21791e-06
-5.38687e-06
7.42917e-06
-6.63982e-06
6.99041e-06
-7.69252e-06
6.03067e-06
-8.49856e-06
4.67281e-06
-9.0285e-06
3.02792e-06
1.19666e-06
-4.53455e-07
2.15848e-06
-1.52569e-06
5.4701e-06
-2.93489e-06
7.6451e-06
-4.45013e-06
8.73315e-06
-5.90635e-06
8.88538e-06
-7.19784e-06
8.2819e-06
-8.26369e-06
7.09652e-06
-9.0721e-06
5.48122e-06
-9.6069e-06
3.56272e-06
1.44738e-06
-5.28333e-07
2.68681e-06
-1.73965e-06
6.68142e-06
-3.27795e-06
9.1834e-06
-4.8716e-06
1.03268e-05
-6.34697e-06
1.03608e-05
-7.61078e-06
9.5457e-06
-8.6243e-06
8.11005e-06
-9.37962e-06
6.23654e-06
-9.88091e-06
4.06401e-06
1.69791e-06
-6.23659e-07
3.31047e-06
-1.98736e-06
8.04512e-06
-3.63187e-06
1.08279e-05
-5.24186e-06
1.19368e-05
-6.64748e-06
1.17664e-05
-7.78437e-06
1.06826e-05
-8.65089e-06
8.97657e-06
-9.27416e-06
6.85981e-06
-9.68638e-06
4.47623e-06
1.92118e-06
-7.54066e-07
4.06454e-06
-2.28431e-06
9.57537e-06
-3.98695e-06
1.25305e-05
-5.509e-06
1.34588e-05
-6.70948e-06
1.29669e-05
-7.57841e-06
1.15515e-05
-8.16988e-06
9.56804e-06
-8.55743e-06
7.24737e-06
-8.80751e-06
4.72631e-06
2.07848e-06
-9.45194e-07
5.00973e-06
-2.64845e-06
1.12786e-05
-4.31091e-06
1.4193e-05
-5.57318e-06
1.47211e-05
-6.37053e-06
1.37642e-05
-6.78308e-06
1.19641e-05
-6.94026e-06
9.72522e-06
-6.96945e-06
7.27656e-06
-6.97247e-06
4.72932e-06
2.12218e-06
-1.2373e-06
6.24703e-06
-3.08325e-06
1.31246e-05
-4.50762e-06
1.56174e-05
-5.23435e-06
1.54478e-05
-5.35504e-06
1.38849e-05
-5.08161e-06
1.16906e-05
-4.63063e-06
9.27423e-06
-4.17895e-06
6.82489e-06
-3.85401e-06
4.40439e-06
2.00482e-06
-1.67379e-06
7.92083e-06
-3.51333e-06
1.49641e-05
-4.31523e-06
1.64193e-05
-4.08875e-06
1.52214e-05
-3.19288e-06
1.2989e-05
-1.99853e-06
1.04963e-05
-7.94889e-07
8.0706e-06
2.19627e-07
5.81037e-06
9.18548e-07
3.70547e-06
1.69744e-06
-2.23068e-06
1.01515e-05
-3.59027e-06
1.63237e-05
-3.07772e-06
1.59067e-05
-1.34378e-06
1.34874e-05
8.97167e-07
1.07481e-05
3.15514e-06
8.23831e-06
5.13832e-06
6.08742e-06
6.68892e-06
4.25977e-06
7.72607e-06
2.66832e-06
1.21673e-06
-2.57381e-06
1.27253e-05
-2.18344e-06
1.59333e-05
7.18104e-07
1.30052e-05
4.46963e-06
9.7359e-06
8.13337e-06
7.08433e-06
1.13017e-05
5.07e-06
1.38292e-05
3.55988e-06
1.56882e-05
2.40075e-06
1.68918e-05
1.46475e-06
6.53572e-07
-7.85014e-07
1.35103e-05
4.0808e-06
1.10675e-05
1.02976e-05
6.78843e-06
1.57937e-05
4.2398e-06
2.01581e-05
2.71991e-06
2.34581e-05
1.76995e-06
2.58609e-05
1.15713e-06
2.75216e-05
7.40031e-07
2.85541e-05
4.32272e-07
1.81271e-07
1.35103e-05
2.45778e-05
3.13663e-05
3.56061e-05
3.8326e-05
4.00959e-05
4.12531e-05
4.19931e-05
4.24254e-05
)
;

boundaryField
{
    movingWall
    {
        type            calculated;
        value           uniform 0;
    }
    fixedWalls
    {
        type            calculated;
        value           uniform 0;
    }
    frontAndBack
    {
        type            empty;
        value           nonuniform 0();
    }
    procBoundary0to1
    {
        type            processor;
        value           nonuniform List<scalar> 
20
(
-8.85657e-07
-2.30617e-06
-3.51872e-06
-4.61217e-06
-5.63877e-06
-6.62629e-06
-7.57883e-06
-8.47477e-06
-9.26301e-06
-9.85762e-06
-1.01314e-05
-9.90964e-06
-8.96482e-06
-7.01617e-06
-3.73666e-06
1.22593e-06
8.20678e-06
1.7455e-05
2.90264e-05
4.26066e-05
)
;
    }
}


// ************************************************************************* //
