/*--------------------------------*- C++ -*----------------------------------*\
| =========                 |                                                 |
| \\      /  F ield         | OpenFOAM: The Open Source CFD Toolbox           |
|  \\    /   O peration     | Version:  2.1.1                                 |
|   \\  /    A nd           | Web:      www.OpenFOAM.org                      |
|    \\/     M anipulation  |                                                 |
\*---------------------------------------------------------------------------*/
FoamFile
{
    version     2.0;
    format      ascii;
    class       volVectorField;
    location    "0.5";
    object      U;
}
// * * * * * * * * * * * * * * * * * * * * * * * * * * * * * * * * * * * * * //

dimensions      [0 1 -1 0 0 0 0];

internalField   nonuniform List<vector> 
200
(
(0.000253325 -0.000250537 0)
(0.000141085 0.000111376 0)
(-0.0011771 0.000564602 0)
(-0.0034813 0.000885005 0)
(-0.00637779 0.00104574 0)
(-0.00946992 0.00106176 0)
(-0.0124035 0.00095784 0)
(-0.0148855 0.00076038 0)
(-0.01669 0.000494534 0)
(-0.0176604 0.00018448 0)
(-7.75199e-05 -0.000169521 0)
(-0.00161174 0.00164481 0)
(-0.00569331 0.00361745 0)
(-0.0117196 0.00503508 0)
(-0.0188935 0.00574353 0)
(-0.0264025 0.00576049 0)
(-0.0334713 0.00517187 0)
(-0.0394292 0.00409256 0)
(-0.0437466 0.0026475 0)
(-0.0460521 0.000966756 0)
(-0.000528662 0.00109161 0)
(-0.00371169 0.00573657 0)
(-0.0105897 0.0102251 0)
(-0.0199932 0.0134085 0)
(-0.0307671 0.0149472 0)
(-0.0418253 0.0148397 0)
(-0.0521236 0.0132564 0)
(-0.0607485 0.0104567 0)
(-0.0669742 0.00674213 0)
(-0.0702898 0.00243876 0)
(-0.000928294 0.00348003 0)
(-0.00569191 0.0122214 0)
(-0.0153029 0.0199229 0)
(-0.0279189 0.0251994 0)
(-0.0419884 0.0275987 0)
(-0.0561831 0.0271392 0)
(-0.0692571 0.0241104 0)
(-0.0801313 0.0189549 0)
(-0.0879545 0.0121961 0)
(-0.0921273 0.00440513 0)
(-0.00127901 0.00687822 0)
(-0.00753654 0.0209549 0)
(-0.0198061 0.0325124 0)
(-0.0355372 0.0401057 0)
(-0.0527469 0.0432929 0)
(-0.0698632 0.0421953 0)
(-0.0854691 0.0372797 0)
(-0.098367 0.0292147 0)
(-0.107627 0.0187782 0)
(-0.112598 0.00681392 0)
(-0.00160761 0.0112163 0)
(-0.00931853 0.0318763 0)
(-0.0242106 0.0479544 0)
(-0.0430049 0.0580751 0)
(-0.0632604 0.0619404 0)
(-0.0831573 0.0598843 0)
(-0.10113 0.052631 0)
(-0.115898 0.0411278 0)
(-0.126495 0.0264382 0)
(-0.132246 0.00969314 0)
(-0.00194012 0.0164779 0)
(-0.0111216 0.0449762 0)
(-0.0286514 0.0662363 0)
(-0.0504816 0.0790628 0)
(-0.0736875 0.0834499 0)
(-0.096207 0.0800775 0)
(-0.116356 0.0700272 0)
(-0.132819 0.054587 0)
(-0.144636 0.0351329 0)
(-0.151148 0.0130849 0)
(-0.00230008 0.0226958 0)
(-0.0130253 0.060303 0)
(-0.0332514 0.0873666 0)
(-0.0580807 0.103 0)
(-0.0840761 0.107669 0)
(-0.108955 0.102565 0)
(-0.13097 0.089247 0)
(-0.148837 0.0694129 0)
(-0.161669 0.0447728 0)
(-0.168872 0.01702 0)
(-0.00271166 0.0299478 0)
(-0.0151081 0.0779585 0)
(-0.0381149 0.111359 0)
(-0.0658486 0.129753 0)
(-0.0943272 0.134321 0)
(-0.1211 0.126977 0)
(-0.144444 0.109905 0)
(-0.163214 0.0852836 0)
(-0.176688 0.0551681 0)
(-0.184409 0.021487 0)
(-0.00320765 0.0383602 0)
(-0.0174662 0.098091 0)
(-0.0433409 0.138191 0)
(-0.0737564 0.159048 0)
(-0.10416 0.162904 0)
(-0.132032 0.152676 0)
(-0.155825 0.131344 0)
(-0.174678 0.101642 0)
(-0.188167 0.0659584 0)
(-0.196069 0.0263895 0)
(-0.00384394 0.0481292 0)
(-0.0202461 0.120895 0)
(-0.0490463 0.167754 0)
(-0.081686 0.190369 0)
(-0.113052 0.19256 0)
(-0.140746 0.178617 0)
(-0.163621 0.152514 0)
(-0.181308 0.117594 0)
(-0.193845 0.0765355 0)
(-0.201361 0.0314941 0)
(-0.00472534 0.0595716 0)
(-0.0236945 0.146618 0)
(-0.0553826 0.199758 0)
(-0.0893757 0.222793 0)
(-0.120121 0.221894 0)
(-0.145675 0.20319 0)
(-0.165629 0.171842 0)
(-0.180369 0.131812 0)
(-0.190579 0.0859703 0)
(-0.196862 0.036376 0)
(-0.00605154 0.0732286 0)
(-0.0282256 0.175564 0)
(-0.0625082 0.233572 0)
(-0.0962561 0.254748 0)
(-0.123855 0.248733 0)
(-0.144396 0.224028 0)
(-0.158668 0.187109 0)
(-0.168105 0.142463 0)
(-0.174198 0.0929689 0)
(-0.178115 0.0403783 0)
(-0.00819202 0.0900464 0)
(-0.0344825 0.208021 0)
(-0.0704116 0.267885 0)
(-0.101022 0.283608 0)
(-0.121573 0.269813 0)
(-0.133105 0.237842 0)
(-0.13816 0.195405 0)
(-0.139459 0.147233 0)
(-0.139364 0.0959088 0)
(-0.139589 0.0426184 0)
(-0.0117674 0.111635 0)
(-0.0432594 0.243962 0)
(-0.0782965 0.300035 0)
(-0.100626 0.305093 0)
(-0.108349 0.280461 0)
(-0.105728 0.240383 0)
(-0.0975256 0.193282 0)
(-0.0877667 0.143549 0)
(-0.0794962 0.0930349 0)
(-0.074776 0.0420934 0)
(-0.0175493 0.140659 0)
(-0.0547643 0.282146 0)
(-0.0827855 0.324719 0)
(-0.088079 0.312474 0)
(-0.0751063 0.274457 0)
(-0.052588 0.226771 0)
(-0.0274548 0.177288 0)
(-0.00451067 0.129135 0)
(0.0131032 0.0829114 0)
(0.0234515 0.037945 0)
(-0.0254497 0.181711 0)
(-0.0657744 0.317771 0)
(-0.0733324 0.331363 0)
(-0.0480759 0.295401 0)
(-0.00557647 0.244212 0)
(0.041221 0.19238 0)
(0.0846561 0.145047 0)
(0.120539 0.102971 0)
(0.146705 0.0651363 0)
(0.16206 0.0298896 0)
(-0.029649 0.239176 0)
(-0.0608412 0.335768 0)
(-0.0219421 0.300503 0)
(0.0505426 0.240127 0)
(0.127573 0.182949 0)
(0.197009 0.135389 0)
(0.254338 0.0973986 0)
(0.298252 0.0668502 0)
(0.328826 0.041354 0)
(0.34648 0.0187774 0)
(0.00808309 0.281861 0)
(0.019783 0.294972 0)
(0.139066 0.210973 0)
(0.26446 0.143477 0)
(0.364368 0.097186 0)
(0.440364 0.0657774 0)
(0.496743 0.0442372 0)
(0.536873 0.0288853 0)
(0.563446 0.0171981 0)
(0.578316 0.00748496 0)
(0.299604 0.146091 0)
(0.396272 0.127503 0)
(0.55742 0.0760895 0)
(0.674487 0.0437233 0)
(0.743888 0.0255721 0)
(0.787153 0.0152422 0)
(0.815485 0.00921222 0)
(0.833954 0.00550915 0)
(0.845384 0.00302698 0)
(0.851377 0.00114983 0)
)
;

boundaryField
{
    movingWall
    {
        type            fixedValue;
        value           uniform (1 0 0);
    }
    fixedWalls
    {
        type            fixedValue;
        value           uniform (0 0 0);
    }
    frontAndBack
    {
        type            empty;
    }
    procBoundary0to1
    {
        type            processor;
        value           nonuniform List<vector> 
20
(
(-0.0177043 -0.000145184 0)
(-0.0461344 -0.000813054 0)
(-0.0704077 -0.00210649 0)
(-0.0923119 -0.00380819 0)
(-0.112906 -0.00578088 0)
(-0.132758 -0.00791703 0)
(-0.151956 -0.0100873 0)
(-0.170067 -0.0121344 0)
(-0.18606 -0.0138754 0)
(-0.198187 -0.0151132 0)
(-0.203857 -0.0156589 0)
(-0.1995 -0.0153702 0)
(-0.180482 -0.0141976 0)
(-0.141103 -0.0122315 0)
(-0.0747938 -0.00972681 0)
(0.02541 -0.00707115 0)
(0.165954 -0.00466925 0)
(0.351389 -0.00279263 0)
(0.582391 -0.00149408 0)
(0.852672 -0.000499782 0)
)
;
    }
}


// ************************************************************************* //
